LAMMPS (16 Feb 2016)
# system small, 30 chains surrounded by 10x number solvent

units lj
atom_style molecular
boundary p p p

read_data system_small.dat
  orthogonal box = (-10 -10 -10) to (210 210 210)
  1 by 2 by 2 MPI processor grid
  reading atoms ...
  45870 atoms
  scanning bonds ...
  1 = max bonds/atom
  reading bonds ...
  4140 bonds
  2 = max # of 1-2 neighbors
  2 = max # of 1-3 neighbors
  4 = max # of 1-4 neighbors
  6 = max # of special neighbors
velocity all create 1.0 4928459 rot yes dist gaussian

group Chain type 1 2
4170 atoms in group Chain
pair_style lj/cut 3.5
pair_coeff 1 * 1.0 1.0 1.1225
pair_coeff 2 2 1.0 1.0 1.1225
pair_coeff 2 3 1.0 1.5 1.1225
pair_coeff 3 3 1.0 1.0 1.1225

special_bonds fene
  2 = max # of 1-2 neighbors
  2 = max # of special neighbors
bond_style fene
bond_coeff * 30.0 1.5 1.0 1.0

neighbor 0.3 bin
neigh_modify delay 0 every 5 check no

fix 1 all nve
fix 2 all langevin 1.0 1.0 10.0 99797

thermo 100
thermo_style multi

dump myDump  Chain atom 1000 opt.lammpstrj

timestep 0.001
run 200000
Neighbor list info ...
  1 neighbor list requests
  update every 5 steps, delay 0 steps, check no
  max neighbors/atom: 2000, page size: 100000
  master list distance cutoff = 1.4225
  ghost atom cutoff = 1.4225
  binsize = 0.71125 -> bins = 310 310 310
Memory usage per processor = 36.3079 Mbytes
---------------- Step        0 ----- CPU =      0.0000 (sec) ----------------
TotEng   =         4.0008 KinEng   =         1.5000 Temp     =         1.0000 
PotEng   =         2.5008 E_bond   =         2.5008 E_angle  =         0.0000 
E_dihed  =         0.0000 E_impro  =         0.0000 E_vdwl   =         0.0000 
E_coul   =         0.0000 E_long   =         0.0000 Press    =        -0.0068 
---------------- Step      100 ----- CPU =      0.6429 (sec) ----------------
TotEng   =         4.0034 KinEng   =         1.4442 Temp     =         0.9628 
PotEng   =         2.5593 E_bond   =         2.5593 E_angle  =         0.0000 
E_dihed  =         0.0000 E_impro  =         0.0000 E_vdwl   =        -0.0000 
E_coul   =         0.0000 E_long   =         0.0000 Press    =        -0.0072 
---------------- Step      200 ----- CPU =      1.3122 (sec) ----------------
TotEng   =         4.0048 KinEng   =         1.4834 Temp     =         0.9889 
PotEng   =         2.5214 E_bond   =         2.5220 E_angle  =         0.0000 
E_dihed  =         0.0000 E_impro  =         0.0000 E_vdwl   =        -0.0006 
E_coul   =         0.0000 E_long   =         0.0000 Press    =        -0.0065 
---------------- Step      300 ----- CPU =      1.9650 (sec) ----------------
TotEng   =         4.0019 KinEng   =         1.4851 Temp     =         0.9901 
PotEng   =         2.5168 E_bond   =         2.5186 E_angle  =         0.0000 
E_dihed  =         0.0000 E_impro  =         0.0000 E_vdwl   =        -0.0018 
E_coul   =         0.0000 E_long   =         0.0000 Press    =        -0.0064 
---------------- Step      400 ----- CPU =      2.6010 (sec) ----------------
TotEng   =         4.0012 KinEng   =         1.5133 Temp     =         1.0089 
PotEng   =         2.4879 E_bond   =         2.4906 E_angle  =         0.0000 
E_dihed  =         0.0000 E_impro  =         0.0000 E_vdwl   =        -0.0027 
E_coul   =         0.0000 E_long   =         0.0000 Press    =        -0.0059 
---------------- Step      500 ----- CPU =      3.3140 (sec) ----------------
TotEng   =         4.0000 KinEng   =         1.5230 Temp     =         1.0153 
PotEng   =         2.4770 E_bond   =         2.4802 E_angle  =         0.0000 
E_dihed  =         0.0000 E_impro  =         0.0000 E_vdwl   =        -0.0031 
E_coul   =         0.0000 E_long   =         0.0000 Press    =        -0.0056 
---------------- Step      600 ----- CPU =      3.9893 (sec) ----------------
TotEng   =         4.0004 KinEng   =         1.5450 Temp     =         1.0300 
PotEng   =         2.4554 E_bond   =         2.4582 E_angle  =         0.0000 
E_dihed  =         0.0000 E_impro  =         0.0000 E_vdwl   =        -0.0027 
E_coul   =         0.0000 E_long   =         0.0000 Press    =        -0.0052 
---------------- Step      700 ----- CPU =      4.7024 (sec) ----------------
TotEng   =         3.9990 KinEng   =         1.5576 Temp     =         1.0384 
PotEng   =         2.4414 E_bond   =         2.4440 E_angle  =         0.0000 
E_dihed  =         0.0000 E_impro  =         0.0000 E_vdwl   =        -0.0026 
E_coul   =         0.0000 E_long   =         0.0000 Press    =        -0.0050 
---------------- Step      800 ----- CPU =      5.4294 (sec) ----------------
TotEng   =         3.9977 KinEng   =         1.5774 Temp     =         1.0516 
PotEng   =         2.4203 E_bond   =         2.4228 E_angle  =         0.0000 
E_dihed  =         0.0000 E_impro  =         0.0000 E_vdwl   =        -0.0025 
E_coul   =         0.0000 E_long   =         0.0000 Press    =        -0.0046 
---------------- Step      900 ----- CPU =      6.1966 (sec) ----------------
TotEng   =         3.9965 KinEng   =         1.5924 Temp     =         1.0616 
PotEng   =         2.4041 E_bond   =         2.4068 E_angle  =         0.0000 
E_dihed  =         0.0000 E_impro  =         0.0000 E_vdwl   =        -0.0027 
E_coul   =         0.0000 E_long   =         0.0000 Press    =        -0.0042 
---------------- Step     1000 ----- CPU =      7.0729 (sec) ----------------
TotEng   =         3.9948 KinEng   =         1.6091 Temp     =         1.0728 
PotEng   =         2.3856 E_bond   =         2.3883 E_angle  =         0.0000 
E_dihed  =         0.0000 E_impro  =         0.0000 E_vdwl   =        -0.0027 
E_coul   =         0.0000 E_long   =         0.0000 Press    =        -0.0039 
---------------- Step     1100 ----- CPU =      7.8505 (sec) ----------------
TotEng   =         3.9934 KinEng   =         1.6270 Temp     =         1.0847 
PotEng   =         2.3663 E_bond   =         2.3690 E_angle  =         0.0000 
E_dihed  =         0.0000 E_impro  =         0.0000 E_vdwl   =        -0.0027 
E_coul   =         0.0000 E_long   =         0.0000 Press    =        -0.0036 
---------------- Step     1200 ----- CPU =      8.6196 (sec) ----------------
TotEng   =         3.9910 KinEng   =         1.6419 Temp     =         1.0946 
PotEng   =         2.3491 E_bond   =         2.3519 E_angle  =         0.0000 
E_dihed  =         0.0000 E_impro  =         0.0000 E_vdwl   =        -0.0028 
E_coul   =         0.0000 E_long   =         0.0000 Press    =        -0.0033 
---------------- Step     1300 ----- CPU =      9.4489 (sec) ----------------
TotEng   =         3.9894 KinEng   =         1.6589 Temp     =         1.1059 
PotEng   =         2.3305 E_bond   =         2.3332 E_angle  =         0.0000 
E_dihed  =         0.0000 E_impro  =         0.0000 E_vdwl   =        -0.0027 
E_coul   =         0.0000 E_long   =         0.0000 Press    =        -0.0029 
---------------- Step     1400 ----- CPU =     10.2860 (sec) ----------------
TotEng   =         3.9843 KinEng   =         1.6706 Temp     =         1.1137 
PotEng   =         2.3137 E_bond   =         2.3165 E_angle  =         0.0000 
E_dihed  =         0.0000 E_impro  =         0.0000 E_vdwl   =        -0.0028 
E_coul   =         0.0000 E_long   =         0.0000 Press    =        -0.0027 
---------------- Step     1500 ----- CPU =     11.1622 (sec) ----------------
TotEng   =         3.9794 KinEng   =         1.6852 Temp     =         1.1235 
PotEng   =         2.2942 E_bond   =         2.2969 E_angle  =         0.0000 
E_dihed  =         0.0000 E_impro  =         0.0000 E_vdwl   =        -0.0027 
E_coul   =         0.0000 E_long   =         0.0000 Press    =        -0.0023 
---------------- Step     1600 ----- CPU =     12.0708 (sec) ----------------
TotEng   =         3.9759 KinEng   =         1.6968 Temp     =         1.1312 
PotEng   =         2.2790 E_bond   =         2.2817 E_angle  =         0.0000 
E_dihed  =         0.0000 E_impro  =         0.0000 E_vdwl   =        -0.0027 
E_coul   =         0.0000 E_long   =         0.0000 Press    =        -0.0020 
---------------- Step     1700 ----- CPU =     12.9333 (sec) ----------------
TotEng   =         3.9704 KinEng   =         1.7119 Temp     =         1.1413 
PotEng   =         2.2585 E_bond   =         2.2611 E_angle  =         0.0000 
E_dihed  =         0.0000 E_impro  =         0.0000 E_vdwl   =        -0.0027 
E_coul   =         0.0000 E_long   =         0.0000 Press    =        -0.0017 
---------------- Step     1800 ----- CPU =     13.8226 (sec) ----------------
TotEng   =         3.9657 KinEng   =         1.7247 Temp     =         1.1498 
PotEng   =         2.2411 E_bond   =         2.2437 E_angle  =         0.0000 
E_dihed  =         0.0000 E_impro  =         0.0000 E_vdwl   =        -0.0026 
E_coul   =         0.0000 E_long   =         0.0000 Press    =        -0.0014 
---------------- Step     1900 ----- CPU =     14.7122 (sec) ----------------
TotEng   =         3.9611 KinEng   =         1.7381 Temp     =         1.1588 
PotEng   =         2.2230 E_bond   =         2.2254 E_angle  =         0.0000 
E_dihed  =         0.0000 E_impro  =         0.0000 E_vdwl   =        -0.0024 
E_coul   =         0.0000 E_long   =         0.0000 Press    =        -0.0011 
---------------- Step     2000 ----- CPU =     15.6238 (sec) ----------------
TotEng   =         3.9545 KinEng   =         1.7495 Temp     =         1.1664 
PotEng   =         2.2049 E_bond   =         2.2079 E_angle  =         0.0000 
E_dihed  =         0.0000 E_impro  =         0.0000 E_vdwl   =        -0.0029 
E_coul   =         0.0000 E_long   =         0.0000 Press    =        -0.0008 
---------------- Step     2100 ----- CPU =     16.6066 (sec) ----------------
TotEng   =         3.9495 KinEng   =         1.7643 Temp     =         1.1762 
PotEng   =         2.1853 E_bond   =         2.1885 E_angle  =         0.0000 
E_dihed  =         0.0000 E_impro  =         0.0000 E_vdwl   =        -0.0033 
E_coul   =         0.0000 E_long   =         0.0000 Press    =        -0.0005 
---------------- Step     2200 ----- CPU =     17.5957 (sec) ----------------
TotEng   =         3.9450 KinEng   =         1.7763 Temp     =         1.1842 
PotEng   =         2.1687 E_bond   =         2.1717 E_angle  =         0.0000 
E_dihed  =         0.0000 E_impro  =         0.0000 E_vdwl   =        -0.0030 
E_coul   =         0.0000 E_long   =         0.0000 Press    =        -0.0002 
---------------- Step     2300 ----- CPU =     18.7021 (sec) ----------------
TotEng   =         3.9406 KinEng   =         1.7905 Temp     =         1.1937 
PotEng   =         2.1501 E_bond   =         2.1529 E_angle  =         0.0000 
E_dihed  =         0.0000 E_impro  =         0.0000 E_vdwl   =        -0.0028 
E_coul   =         0.0000 E_long   =         0.0000 Press    =         0.0001 
---------------- Step     2400 ----- CPU =     19.4412 (sec) ----------------
TotEng   =         3.9347 KinEng   =         1.8004 Temp     =         1.2003 
PotEng   =         2.1343 E_bond   =         2.1369 E_angle  =         0.0000 
E_dihed  =         0.0000 E_impro  =         0.0000 E_vdwl   =        -0.0026 
E_coul   =         0.0000 E_long   =         0.0000 Press    =         0.0003 
---------------- Step     2500 ----- CPU =     20.2517 (sec) ----------------
TotEng   =         3.9290 KinEng   =         1.8170 Temp     =         1.2114 
PotEng   =         2.1119 E_bond   =         2.1144 E_angle  =         0.0000 
E_dihed  =         0.0000 E_impro  =         0.0000 E_vdwl   =        -0.0025 
E_coul   =         0.0000 E_long   =         0.0000 Press    =         0.0006 
---------------- Step     2600 ----- CPU =     21.0042 (sec) ----------------
TotEng   =         3.9223 KinEng   =         1.8250 Temp     =         1.2167 
PotEng   =         2.0973 E_bond   =         2.0998 E_angle  =         0.0000 
E_dihed  =         0.0000 E_impro  =         0.0000 E_vdwl   =        -0.0024 
E_coul   =         0.0000 E_long   =         0.0000 Press    =         0.0009 
---------------- Step     2700 ----- CPU =     21.8627 (sec) ----------------
TotEng   =         3.9162 KinEng   =         1.8388 Temp     =         1.2259 
PotEng   =         2.0773 E_bond   =         2.0801 E_angle  =         0.0000 
E_dihed  =         0.0000 E_impro  =         0.0000 E_vdwl   =        -0.0028 
E_coul   =         0.0000 E_long   =         0.0000 Press    =         0.0012 
---------------- Step     2800 ----- CPU =     22.5937 (sec) ----------------
TotEng   =         3.9103 KinEng   =         1.8490 Temp     =         1.2327 
PotEng   =         2.0613 E_bond   =         2.0639 E_angle  =         0.0000 
E_dihed  =         0.0000 E_impro  =         0.0000 E_vdwl   =        -0.0026 
E_coul   =         0.0000 E_long   =         0.0000 Press    =         0.0015 
---------------- Step     2900 ----- CPU =     23.3426 (sec) ----------------
TotEng   =         3.9045 KinEng   =         1.8626 Temp     =         1.2417 
PotEng   =         2.0419 E_bond   =         2.0448 E_angle  =         0.0000 
E_dihed  =         0.0000 E_impro  =         0.0000 E_vdwl   =        -0.0029 
E_coul   =         0.0000 E_long   =         0.0000 Press    =         0.0018 
---------------- Step     3000 ----- CPU =     24.2669 (sec) ----------------
TotEng   =         3.8966 KinEng   =         1.8708 Temp     =         1.2472 
PotEng   =         2.0259 E_bond   =         2.0284 E_angle  =         0.0000 
E_dihed  =         0.0000 E_impro  =         0.0000 E_vdwl   =        -0.0026 
E_coul   =         0.0000 E_long   =         0.0000 Press    =         0.0020 
---------------- Step     3100 ----- CPU =     24.9382 (sec) ----------------
TotEng   =         3.8896 KinEng   =         1.8833 Temp     =         1.2555 
PotEng   =         2.0063 E_bond   =         2.0090 E_angle  =         0.0000 
E_dihed  =         0.0000 E_impro  =         0.0000 E_vdwl   =        -0.0027 
E_coul   =         0.0000 E_long   =         0.0000 Press    =         0.0024 
---------------- Step     3200 ----- CPU =     25.5965 (sec) ----------------
TotEng   =         3.8869 KinEng   =         1.8966 Temp     =         1.2644 
PotEng   =         1.9903 E_bond   =         1.9907 E_angle  =         0.0000 
E_dihed  =         0.0000 E_impro  =         0.0000 E_vdwl   =        -0.0004 
E_coul   =         0.0000 E_long   =         0.0000 Press    =         0.0026 
---------------- Step     3300 ----- CPU =     26.2545 (sec) ----------------
TotEng   =         3.8790 KinEng   =         1.9049 Temp     =         1.2700 
PotEng   =         1.9741 E_bond   =         1.9744 E_angle  =         0.0000 
E_dihed  =         0.0000 E_impro  =         0.0000 E_vdwl   =        -0.0003 
E_coul   =         0.0000 E_long   =         0.0000 Press    =         0.0029 
---------------- Step     3400 ----- CPU =     26.9503 (sec) ----------------
TotEng   =         3.8684 KinEng   =         1.9150 Temp     =         1.2767 
PotEng   =         1.9534 E_bond   =         1.9557 E_angle  =         0.0000 
E_dihed  =         0.0000 E_impro  =         0.0000 E_vdwl   =        -0.0023 
E_coul   =         0.0000 E_long   =         0.0000 Press    =         0.0031 
---------------- Step     3500 ----- CPU =     27.6687 (sec) ----------------
TotEng   =         3.8602 KinEng   =         1.9268 Temp     =         1.2846 
PotEng   =         1.9334 E_bond   =         1.9358 E_angle  =         0.0000 
E_dihed  =         0.0000 E_impro  =         0.0000 E_vdwl   =        -0.0024 
E_coul   =         0.0000 E_long   =         0.0000 Press    =         0.0034 
---------------- Step     3600 ----- CPU =     28.3780 (sec) ----------------
TotEng   =         3.8497 KinEng   =         1.9357 Temp     =         1.2905 
PotEng   =         1.9140 E_bond   =         1.9170 E_angle  =         0.0000 
E_dihed  =         0.0000 E_impro  =         0.0000 E_vdwl   =        -0.0030 
E_coul   =         0.0000 E_long   =         0.0000 Press    =         0.0037 
---------------- Step     3700 ----- CPU =     29.1352 (sec) ----------------
TotEng   =         3.8407 KinEng   =         1.9326 Temp     =         1.2885 
PotEng   =         1.9081 E_bond   =         1.9112 E_angle  =         0.0000 
E_dihed  =         0.0000 E_impro  =         0.0000 E_vdwl   =        -0.0030 
E_coul   =         0.0000 E_long   =         0.0000 Press    =         0.0040 
---------------- Step     3800 ----- CPU =     29.8610 (sec) ----------------
TotEng   =         3.8338 KinEng   =         1.9295 Temp     =         1.2863 
PotEng   =         1.9043 E_bond   =         1.9068 E_angle  =         0.0000 
E_dihed  =         0.0000 E_impro  =         0.0000 E_vdwl   =        -0.0025 
E_coul   =         0.0000 E_long   =         0.0000 Press    =         0.0041 
---------------- Step     3900 ----- CPU =     30.5460 (sec) ----------------
TotEng   =         3.8247 KinEng   =         1.9189 Temp     =         1.2793 
PotEng   =         1.9059 E_bond   =         1.9082 E_angle  =         0.0000 
E_dihed  =         0.0000 E_impro  =         0.0000 E_vdwl   =        -0.0024 
E_coul   =         0.0000 E_long   =         0.0000 Press    =         0.0040 
---------------- Step     4000 ----- CPU =     31.2850 (sec) ----------------
TotEng   =         3.8159 KinEng   =         1.9148 Temp     =         1.2765 
PotEng   =         1.9011 E_bond   =         1.9035 E_angle  =         0.0000 
E_dihed  =         0.0000 E_impro  =         0.0000 E_vdwl   =        -0.0024 
E_coul   =         0.0000 E_long   =         0.0000 Press    =         0.0041 
---------------- Step     4100 ----- CPU =     31.9477 (sec) ----------------
TotEng   =         3.8072 KinEng   =         1.9045 Temp     =         1.2697 
PotEng   =         1.9027 E_bond   =         1.9052 E_angle  =         0.0000 
E_dihed  =         0.0000 E_impro  =         0.0000 E_vdwl   =        -0.0025 
E_coul   =         0.0000 E_long   =         0.0000 Press    =         0.0042 
---------------- Step     4200 ----- CPU =     32.6583 (sec) ----------------
TotEng   =         3.8008 KinEng   =         1.9003 Temp     =         1.2669 
PotEng   =         1.9005 E_bond   =         1.9032 E_angle  =         0.0000 
E_dihed  =         0.0000 E_impro  =         0.0000 E_vdwl   =        -0.0027 
E_coul   =         0.0000 E_long   =         0.0000 Press    =         0.0043 
---------------- Step     4300 ----- CPU =     33.3534 (sec) ----------------
TotEng   =         3.7944 KinEng   =         1.8980 Temp     =         1.2654 
PotEng   =         1.8964 E_bond   =         1.8997 E_angle  =         0.0000 
E_dihed  =         0.0000 E_impro  =         0.0000 E_vdwl   =        -0.0032 
E_coul   =         0.0000 E_long   =         0.0000 Press    =         0.0044 
---------------- Step     4400 ----- CPU =     34.0360 (sec) ----------------
TotEng   =         3.7858 KinEng   =         1.8902 Temp     =         1.2602 
PotEng   =         1.8955 E_bond   =         1.8988 E_angle  =         0.0000 
E_dihed  =         0.0000 E_impro  =         0.0000 E_vdwl   =        -0.0033 
E_coul   =         0.0000 E_long   =         0.0000 Press    =         0.0044 
---------------- Step     4500 ----- CPU =     34.7117 (sec) ----------------
TotEng   =         3.7797 KinEng   =         1.8815 Temp     =         1.2544 
PotEng   =         1.8982 E_bond   =         1.9012 E_angle  =         0.0000 
E_dihed  =         0.0000 E_impro  =         0.0000 E_vdwl   =        -0.0030 
E_coul   =         0.0000 E_long   =         0.0000 Press    =         0.0044 
---------------- Step     4600 ----- CPU =     35.3881 (sec) ----------------
TotEng   =         3.7702 KinEng   =         1.8752 Temp     =         1.2501 
PotEng   =         1.8950 E_bond   =         1.8982 E_angle  =         0.0000 
E_dihed  =         0.0000 E_impro  =         0.0000 E_vdwl   =        -0.0032 
E_coul   =         0.0000 E_long   =         0.0000 Press    =         0.0044 
---------------- Step     4700 ----- CPU =     36.0642 (sec) ----------------
TotEng   =         3.7661 KinEng   =         1.8717 Temp     =         1.2478 
PotEng   =         1.8945 E_bond   =         1.8974 E_angle  =         0.0000 
E_dihed  =         0.0000 E_impro  =         0.0000 E_vdwl   =        -0.0029 
E_coul   =         0.0000 E_long   =         0.0000 Press    =         0.0044 
---------------- Step     4800 ----- CPU =     36.7580 (sec) ----------------
TotEng   =         3.7593 KinEng   =         1.8668 Temp     =         1.2446 
PotEng   =         1.8925 E_bond   =         1.8957 E_angle  =         0.0000 
E_dihed  =         0.0000 E_impro  =         0.0000 E_vdwl   =        -0.0031 
E_coul   =         0.0000 E_long   =         0.0000 Press    =         0.0044 
---------------- Step     4900 ----- CPU =     37.4356 (sec) ----------------
TotEng   =         3.7561 KinEng   =         1.8597 Temp     =         1.2398 
PotEng   =         1.8964 E_bond   =         1.8969 E_angle  =         0.0000 
E_dihed  =         0.0000 E_impro  =         0.0000 E_vdwl   =        -0.0005 
E_coul   =         0.0000 E_long   =         0.0000 Press    =         0.0045 
---------------- Step     5000 ----- CPU =     38.1559 (sec) ----------------
TotEng   =         3.7465 KinEng   =         1.8545 Temp     =         1.2364 
PotEng   =         1.8919 E_bond   =         1.8948 E_angle  =         0.0000 
E_dihed  =         0.0000 E_impro  =         0.0000 E_vdwl   =        -0.0029 
E_coul   =         0.0000 E_long   =         0.0000 Press    =         0.0045 
---------------- Step     5100 ----- CPU =     38.8148 (sec) ----------------
TotEng   =         3.7399 KinEng   =         1.8474 Temp     =         1.2316 
PotEng   =         1.8924 E_bond   =         1.8955 E_angle  =         0.0000 
E_dihed  =         0.0000 E_impro  =         0.0000 E_vdwl   =        -0.0031 
E_coul   =         0.0000 E_long   =         0.0000 Press    =         0.0045 
---------------- Step     5200 ----- CPU =     39.4824 (sec) ----------------
TotEng   =         3.7323 KinEng   =         1.8406 Temp     =         1.2271 
PotEng   =         1.8916 E_bond   =         1.8949 E_angle  =         0.0000 
E_dihed  =         0.0000 E_impro  =         0.0000 E_vdwl   =        -0.0033 
E_coul   =         0.0000 E_long   =         0.0000 Press    =         0.0045 
---------------- Step     5300 ----- CPU =     40.1842 (sec) ----------------
TotEng   =         3.7263 KinEng   =         1.8349 Temp     =         1.2233 
PotEng   =         1.8914 E_bond   =         1.8945 E_angle  =         0.0000 
E_dihed  =         0.0000 E_impro  =         0.0000 E_vdwl   =        -0.0030 
E_coul   =         0.0000 E_long   =         0.0000 Press    =         0.0045 
---------------- Step     5400 ----- CPU =     40.8847 (sec) ----------------
TotEng   =         3.7202 KinEng   =         1.8306 Temp     =         1.2204 
PotEng   =         1.8896 E_bond   =         1.8926 E_angle  =         0.0000 
E_dihed  =         0.0000 E_impro  =         0.0000 E_vdwl   =        -0.0030 
E_coul   =         0.0000 E_long   =         0.0000 Press    =         0.0045 
---------------- Step     5500 ----- CPU =     41.5809 (sec) ----------------
TotEng   =         3.7122 KinEng   =         1.8227 Temp     =         1.2152 
PotEng   =         1.8895 E_bond   =         1.8927 E_angle  =         0.0000 
E_dihed  =         0.0000 E_impro  =         0.0000 E_vdwl   =        -0.0031 
E_coul   =         0.0000 E_long   =         0.0000 Press    =         0.0045 
---------------- Step     5600 ----- CPU =     42.2695 (sec) ----------------
TotEng   =         3.7064 KinEng   =         1.8155 Temp     =         1.2103 
PotEng   =         1.8909 E_bond   =         1.8939 E_angle  =         0.0000 
E_dihed  =         0.0000 E_impro  =         0.0000 E_vdwl   =        -0.0030 
E_coul   =         0.0000 E_long   =         0.0000 Press    =         0.0046 
---------------- Step     5700 ----- CPU =     42.9609 (sec) ----------------
TotEng   =         3.7017 KinEng   =         1.8122 Temp     =         1.2082 
PotEng   =         1.8895 E_bond   =         1.8927 E_angle  =         0.0000 
E_dihed  =         0.0000 E_impro  =         0.0000 E_vdwl   =        -0.0032 
E_coul   =         0.0000 E_long   =         0.0000 Press    =         0.0045 
---------------- Step     5800 ----- CPU =     43.6701 (sec) ----------------
TotEng   =         3.6951 KinEng   =         1.8053 Temp     =         1.2036 
PotEng   =         1.8898 E_bond   =         1.8934 E_angle  =         0.0000 
E_dihed  =         0.0000 E_impro  =         0.0000 E_vdwl   =        -0.0036 
E_coul   =         0.0000 E_long   =         0.0000 Press    =         0.0045 
---------------- Step     5900 ----- CPU =     44.3855 (sec) ----------------
TotEng   =         3.6890 KinEng   =         1.8000 Temp     =         1.2000 
PotEng   =         1.8890 E_bond   =         1.8922 E_angle  =         0.0000 
E_dihed  =         0.0000 E_impro  =         0.0000 E_vdwl   =        -0.0032 
E_coul   =         0.0000 E_long   =         0.0000 Press    =         0.0047 
---------------- Step     6000 ----- CPU =     45.0882 (sec) ----------------
TotEng   =         3.6850 KinEng   =         1.7958 Temp     =         1.1972 
PotEng   =         1.8892 E_bond   =         1.8906 E_angle  =         0.0000 
E_dihed  =         0.0000 E_impro  =         0.0000 E_vdwl   =        -0.0013 
E_coul   =         0.0000 E_long   =         0.0000 Press    =         0.0046 
---------------- Step     6100 ----- CPU =     45.7264 (sec) ----------------
TotEng   =         3.6757 KinEng   =         1.7909 Temp     =         1.1939 
PotEng   =         1.8849 E_bond   =         1.8886 E_angle  =         0.0000 
E_dihed  =         0.0000 E_impro  =         0.0000 E_vdwl   =        -0.0037 
E_coul   =         0.0000 E_long   =         0.0000 Press    =         0.0044 
---------------- Step     6200 ----- CPU =     46.3750 (sec) ----------------
TotEng   =         3.6719 KinEng   =         1.7866 Temp     =         1.1911 
PotEng   =         1.8853 E_bond   =         1.8888 E_angle  =         0.0000 
E_dihed  =         0.0000 E_impro  =         0.0000 E_vdwl   =        -0.0035 
E_coul   =         0.0000 E_long   =         0.0000 Press    =         0.0045 
---------------- Step     6300 ----- CPU =     47.0250 (sec) ----------------
TotEng   =         3.6665 KinEng   =         1.7794 Temp     =         1.1863 
PotEng   =         1.8871 E_bond   =         1.8902 E_angle  =         0.0000 
E_dihed  =         0.0000 E_impro  =         0.0000 E_vdwl   =        -0.0031 
E_coul   =         0.0000 E_long   =         0.0000 Press    =         0.0045 
---------------- Step     6400 ----- CPU =     47.6804 (sec) ----------------
TotEng   =         3.6608 KinEng   =         1.7743 Temp     =         1.1829 
PotEng   =         1.8864 E_bond   =         1.8895 E_angle  =         0.0000 
E_dihed  =         0.0000 E_impro  =         0.0000 E_vdwl   =        -0.0030 
E_coul   =         0.0000 E_long   =         0.0000 Press    =         0.0045 
---------------- Step     6500 ----- CPU =     48.3870 (sec) ----------------
TotEng   =         3.6530 KinEng   =         1.7677 Temp     =         1.1785 
PotEng   =         1.8853 E_bond   =         1.8884 E_angle  =         0.0000 
E_dihed  =         0.0000 E_impro  =         0.0000 E_vdwl   =        -0.0030 
E_coul   =         0.0000 E_long   =         0.0000 Press    =         0.0045 
---------------- Step     6600 ----- CPU =     49.0852 (sec) ----------------
TotEng   =         3.6484 KinEng   =         1.7651 Temp     =         1.1767 
PotEng   =         1.8834 E_bond   =         1.8863 E_angle  =         0.0000 
E_dihed  =         0.0000 E_impro  =         0.0000 E_vdwl   =        -0.0029 
E_coul   =         0.0000 E_long   =         0.0000 Press    =         0.0046 
---------------- Step     6700 ----- CPU =     49.7678 (sec) ----------------
TotEng   =         3.6437 KinEng   =         1.7599 Temp     =         1.1733 
PotEng   =         1.8838 E_bond   =         1.8872 E_angle  =         0.0000 
E_dihed  =         0.0000 E_impro  =         0.0000 E_vdwl   =        -0.0034 
E_coul   =         0.0000 E_long   =         0.0000 Press    =         0.0045 
---------------- Step     6800 ----- CPU =     50.4876 (sec) ----------------
TotEng   =         3.6375 KinEng   =         1.7493 Temp     =         1.1662 
PotEng   =         1.8882 E_bond   =         1.8895 E_angle  =         0.0000 
E_dihed  =         0.0000 E_impro  =         0.0000 E_vdwl   =        -0.0013 
E_coul   =         0.0000 E_long   =         0.0000 Press    =         0.0045 
---------------- Step     6900 ----- CPU =     51.2408 (sec) ----------------
TotEng   =         3.6317 KinEng   =         1.7486 Temp     =         1.1658 
PotEng   =         1.8831 E_bond   =         1.8869 E_angle  =         0.0000 
E_dihed  =         0.0000 E_impro  =         0.0000 E_vdwl   =        -0.0037 
E_coul   =         0.0000 E_long   =         0.0000 Press    =         0.0047 
---------------- Step     7000 ----- CPU =     52.0047 (sec) ----------------
TotEng   =         3.6234 KinEng   =         1.7395 Temp     =         1.1597 
PotEng   =         1.8839 E_bond   =         1.8873 E_angle  =         0.0000 
E_dihed  =         0.0000 E_impro  =         0.0000 E_vdwl   =        -0.0034 
E_coul   =         0.0000 E_long   =         0.0000 Press    =         0.0045 
---------------- Step     7100 ----- CPU =     52.7470 (sec) ----------------
TotEng   =         3.6181 KinEng   =         1.7352 Temp     =         1.1568 
PotEng   =         1.8829 E_bond   =         1.8864 E_angle  =         0.0000 
E_dihed  =         0.0000 E_impro  =         0.0000 E_vdwl   =        -0.0036 
E_coul   =         0.0000 E_long   =         0.0000 Press    =         0.0045 
---------------- Step     7200 ----- CPU =     53.4650 (sec) ----------------
TotEng   =         3.6112 KinEng   =         1.7298 Temp     =         1.1532 
PotEng   =         1.8814 E_bond   =         1.8850 E_angle  =         0.0000 
E_dihed  =         0.0000 E_impro  =         0.0000 E_vdwl   =        -0.0036 
E_coul   =         0.0000 E_long   =         0.0000 Press    =         0.0045 
---------------- Step     7300 ----- CPU =     54.3079 (sec) ----------------
TotEng   =         3.6041 KinEng   =         1.7224 Temp     =         1.1483 
PotEng   =         1.8818 E_bond   =         1.8860 E_angle  =         0.0000 
E_dihed  =         0.0000 E_impro  =         0.0000 E_vdwl   =        -0.0042 
E_coul   =         0.0000 E_long   =         0.0000 Press    =         0.0045 
---------------- Step     7400 ----- CPU =     55.1440 (sec) ----------------
TotEng   =         3.6014 KinEng   =         1.7180 Temp     =         1.1453 
PotEng   =         1.8834 E_bond   =         1.8848 E_angle  =         0.0000 
E_dihed  =         0.0000 E_impro  =         0.0000 E_vdwl   =        -0.0014 
E_coul   =         0.0000 E_long   =         0.0000 Press    =         0.0045 
---------------- Step     7500 ----- CPU =     56.0547 (sec) ----------------
TotEng   =         3.5940 KinEng   =         1.7133 Temp     =         1.1422 
PotEng   =         1.8807 E_bond   =         1.8849 E_angle  =         0.0000 
E_dihed  =         0.0000 E_impro  =         0.0000 E_vdwl   =        -0.0041 
E_coul   =         0.0000 E_long   =         0.0000 Press    =         0.0045 
---------------- Step     7600 ----- CPU =     56.7661 (sec) ----------------
TotEng   =         3.5905 KinEng   =         1.7102 Temp     =         1.1402 
PotEng   =         1.8803 E_bond   =         1.8845 E_angle  =         0.0000 
E_dihed  =         0.0000 E_impro  =         0.0000 E_vdwl   =        -0.0042 
E_coul   =         0.0000 E_long   =         0.0000 Press    =         0.0045 
---------------- Step     7700 ----- CPU =     57.4649 (sec) ----------------
TotEng   =         3.5886 KinEng   =         1.7076 Temp     =         1.1385 
PotEng   =         1.8810 E_bond   =         1.8846 E_angle  =         0.0000 
E_dihed  =         0.0000 E_impro  =         0.0000 E_vdwl   =        -0.0036 
E_coul   =         0.0000 E_long   =         0.0000 Press    =         0.0044 
---------------- Step     7800 ----- CPU =     58.1237 (sec) ----------------
TotEng   =         3.5856 KinEng   =         1.7022 Temp     =         1.1348 
PotEng   =         1.8833 E_bond   =         1.8869 E_angle  =         0.0000 
E_dihed  =         0.0000 E_impro  =         0.0000 E_vdwl   =        -0.0035 
E_coul   =         0.0000 E_long   =         0.0000 Press    =         0.0044 
---------------- Step     7900 ----- CPU =     58.7878 (sec) ----------------
TotEng   =         3.5801 KinEng   =         1.6990 Temp     =         1.1327 
PotEng   =         1.8811 E_bond   =         1.8851 E_angle  =         0.0000 
E_dihed  =         0.0000 E_impro  =         0.0000 E_vdwl   =        -0.0040 
E_coul   =         0.0000 E_long   =         0.0000 Press    =         0.0045 
---------------- Step     8000 ----- CPU =     59.4792 (sec) ----------------
TotEng   =         3.5805 KinEng   =         1.6989 Temp     =         1.1327 
PotEng   =         1.8816 E_bond   =         1.8827 E_angle  =         0.0000 
E_dihed  =         0.0000 E_impro  =         0.0000 E_vdwl   =        -0.0011 
E_coul   =         0.0000 E_long   =         0.0000 Press    =         0.0045 
---------------- Step     8100 ----- CPU =     60.1278 (sec) ----------------
TotEng   =         3.5748 KinEng   =         1.6936 Temp     =         1.1291 
PotEng   =         1.8812 E_bond   =         1.8851 E_angle  =         0.0000 
E_dihed  =         0.0000 E_impro  =         0.0000 E_vdwl   =        -0.0039 
E_coul   =         0.0000 E_long   =         0.0000 Press    =         0.0043 
---------------- Step     8200 ----- CPU =     60.8270 (sec) ----------------
TotEng   =         3.5689 KinEng   =         1.6902 Temp     =         1.1268 
PotEng   =         1.8787 E_bond   =         1.8828 E_angle  =         0.0000 
E_dihed  =         0.0000 E_impro  =         0.0000 E_vdwl   =        -0.0040 
E_coul   =         0.0000 E_long   =         0.0000 Press    =         0.0044 
---------------- Step     8300 ----- CPU =     61.5279 (sec) ----------------
TotEng   =         3.5643 KinEng   =         1.6849 Temp     =         1.1233 
PotEng   =         1.8794 E_bond   =         1.8838 E_angle  =         0.0000 
E_dihed  =         0.0000 E_impro  =         0.0000 E_vdwl   =        -0.0043 
E_coul   =         0.0000 E_long   =         0.0000 Press    =         0.0045 
---------------- Step     8400 ----- CPU =     62.2093 (sec) ----------------
TotEng   =         3.5606 KinEng   =         1.6803 Temp     =         1.1202 
PotEng   =         1.8803 E_bond   =         1.8847 E_angle  =         0.0000 
E_dihed  =         0.0000 E_impro  =         0.0000 E_vdwl   =        -0.0044 
E_coul   =         0.0000 E_long   =         0.0000 Press    =         0.0043 
---------------- Step     8500 ----- CPU =     62.8778 (sec) ----------------
TotEng   =         3.5572 KinEng   =         1.6795 Temp     =         1.1197 
PotEng   =         1.8778 E_bond   =         1.8823 E_angle  =         0.0000 
E_dihed  =         0.0000 E_impro  =         0.0000 E_vdwl   =        -0.0045 
E_coul   =         0.0000 E_long   =         0.0000 Press    =         0.0044 
---------------- Step     8600 ----- CPU =     63.5370 (sec) ----------------
TotEng   =         3.5576 KinEng   =         1.6781 Temp     =         1.1188 
PotEng   =         1.8794 E_bond   =         1.8837 E_angle  =         0.0000 
E_dihed  =         0.0000 E_impro  =         0.0000 E_vdwl   =        -0.0043 
E_coul   =         0.0000 E_long   =         0.0000 Press    =         0.0044 
---------------- Step     8700 ----- CPU =     64.2760 (sec) ----------------
TotEng   =         3.5551 KinEng   =         1.6771 Temp     =         1.1181 
PotEng   =         1.8780 E_bond   =         1.8822 E_angle  =         0.0000 
E_dihed  =         0.0000 E_impro  =         0.0000 E_vdwl   =        -0.0042 
E_coul   =         0.0000 E_long   =         0.0000 Press    =         0.0044 
---------------- Step     8800 ----- CPU =     65.0502 (sec) ----------------
TotEng   =         3.5534 KinEng   =         1.6731 Temp     =         1.1154 
PotEng   =         1.8803 E_bond   =         1.8827 E_angle  =         0.0000 
E_dihed  =         0.0000 E_impro  =         0.0000 E_vdwl   =        -0.0024 
E_coul   =         0.0000 E_long   =         0.0000 Press    =         0.0044 
---------------- Step     8900 ----- CPU =     65.7322 (sec) ----------------
TotEng   =         3.5502 KinEng   =         1.6697 Temp     =         1.1132 
PotEng   =         1.8804 E_bond   =         1.8828 E_angle  =         0.0000 
E_dihed  =         0.0000 E_impro  =         0.0000 E_vdwl   =        -0.0023 
E_coul   =         0.0000 E_long   =         0.0000 Press    =         0.0044 
---------------- Step     9000 ----- CPU =     66.4634 (sec) ----------------
TotEng   =         3.5453 KinEng   =         1.6676 Temp     =         1.1117 
PotEng   =         1.8778 E_bond   =         1.8823 E_angle  =         0.0000 
E_dihed  =         0.0000 E_impro  =         0.0000 E_vdwl   =        -0.0045 
E_coul   =         0.0000 E_long   =         0.0000 Press    =         0.0044 
---------------- Step     9100 ----- CPU =     67.1621 (sec) ----------------
TotEng   =         3.5408 KinEng   =         1.6634 Temp     =         1.1090 
PotEng   =         1.8774 E_bond   =         1.8815 E_angle  =         0.0000 
E_dihed  =         0.0000 E_impro  =         0.0000 E_vdwl   =        -0.0041 
E_coul   =         0.0000 E_long   =         0.0000 Press    =         0.0044 
---------------- Step     9200 ----- CPU =     67.8481 (sec) ----------------
TotEng   =         3.5394 KinEng   =         1.6599 Temp     =         1.1066 
PotEng   =         1.8795 E_bond   =         1.8814 E_angle  =         0.0000 
E_dihed  =         0.0000 E_impro  =         0.0000 E_vdwl   =        -0.0019 
E_coul   =         0.0000 E_long   =         0.0000 Press    =         0.0043 
---------------- Step     9300 ----- CPU =     68.5869 (sec) ----------------
TotEng   =         3.5305 KinEng   =         1.6535 Temp     =         1.1023 
PotEng   =         1.8770 E_bond   =         1.8816 E_angle  =         0.0000 
E_dihed  =         0.0000 E_impro  =         0.0000 E_vdwl   =        -0.0046 
E_coul   =         0.0000 E_long   =         0.0000 Press    =         0.0045 
---------------- Step     9400 ----- CPU =     69.2827 (sec) ----------------
TotEng   =         3.5287 KinEng   =         1.6487 Temp     =         1.0991 
PotEng   =         1.8800 E_bond   =         1.8819 E_angle  =         0.0000 
E_dihed  =         0.0000 E_impro  =         0.0000 E_vdwl   =        -0.0019 
E_coul   =         0.0000 E_long   =         0.0000 Press    =         0.0044 
---------------- Step     9500 ----- CPU =     69.9317 (sec) ----------------
TotEng   =         3.5230 KinEng   =         1.6467 Temp     =         1.0978 
PotEng   =         1.8763 E_bond   =         1.8811 E_angle  =         0.0000 
E_dihed  =         0.0000 E_impro  =         0.0000 E_vdwl   =        -0.0048 
E_coul   =         0.0000 E_long   =         0.0000 Press    =         0.0043 
---------------- Step     9600 ----- CPU =     70.5813 (sec) ----------------
TotEng   =         3.5194 KinEng   =         1.6449 Temp     =         1.0966 
PotEng   =         1.8745 E_bond   =         1.8798 E_angle  =         0.0000 
E_dihed  =         0.0000 E_impro  =         0.0000 E_vdwl   =        -0.0054 
E_coul   =         0.0000 E_long   =         0.0000 Press    =         0.0044 
---------------- Step     9700 ----- CPU =     71.2440 (sec) ----------------
TotEng   =         3.5192 KinEng   =         1.6441 Temp     =         1.0961 
PotEng   =         1.8751 E_bond   =         1.8798 E_angle  =         0.0000 
E_dihed  =         0.0000 E_impro  =         0.0000 E_vdwl   =        -0.0047 
E_coul   =         0.0000 E_long   =         0.0000 Press    =         0.0043 
---------------- Step     9800 ----- CPU =     71.9370 (sec) ----------------
TotEng   =         3.5182 KinEng   =         1.6424 Temp     =         1.0949 
PotEng   =         1.8758 E_bond   =         1.8804 E_angle  =         0.0000 
E_dihed  =         0.0000 E_impro  =         0.0000 E_vdwl   =        -0.0045 
E_coul   =         0.0000 E_long   =         0.0000 Press    =         0.0043 
---------------- Step     9900 ----- CPU =     72.6272 (sec) ----------------
TotEng   =         3.5132 KinEng   =         1.6369 Temp     =         1.0913 
PotEng   =         1.8762 E_bond   =         1.8812 E_angle  =         0.0000 
E_dihed  =         0.0000 E_impro  =         0.0000 E_vdwl   =        -0.0049 
E_coul   =         0.0000 E_long   =         0.0000 Press    =         0.0044 
---------------- Step    10000 ----- CPU =     73.3262 (sec) ----------------
TotEng   =         3.5124 KinEng   =         1.6351 Temp     =         1.0901 
PotEng   =         1.8773 E_bond   =         1.8794 E_angle  =         0.0000 
E_dihed  =         0.0000 E_impro  =         0.0000 E_vdwl   =        -0.0021 
E_coul   =         0.0000 E_long   =         0.0000 Press    =         0.0043 
---------------- Step    10100 ----- CPU =     73.9921 (sec) ----------------
TotEng   =         3.5076 KinEng   =         1.6323 Temp     =         1.0882 
PotEng   =         1.8753 E_bond   =         1.8802 E_angle  =         0.0000 
E_dihed  =         0.0000 E_impro  =         0.0000 E_vdwl   =        -0.0049 
E_coul   =         0.0000 E_long   =         0.0000 Press    =         0.0044 
---------------- Step    10200 ----- CPU =     74.6824 (sec) ----------------
TotEng   =         3.5038 KinEng   =         1.6281 Temp     =         1.0854 
PotEng   =         1.8757 E_bond   =         1.8809 E_angle  =         0.0000 
E_dihed  =         0.0000 E_impro  =         0.0000 E_vdwl   =        -0.0052 
E_coul   =         0.0000 E_long   =         0.0000 Press    =         0.0043 
---------------- Step    10300 ----- CPU =     75.3453 (sec) ----------------
TotEng   =         3.5027 KinEng   =         1.6259 Temp     =         1.0840 
PotEng   =         1.8767 E_bond   =         1.8796 E_angle  =         0.0000 
E_dihed  =         0.0000 E_impro  =         0.0000 E_vdwl   =        -0.0029 
E_coul   =         0.0000 E_long   =         0.0000 Press    =         0.0043 
---------------- Step    10400 ----- CPU =     76.0890 (sec) ----------------
TotEng   =         3.4995 KinEng   =         1.6262 Temp     =         1.0842 
PotEng   =         1.8733 E_bond   =         1.8786 E_angle  =         0.0000 
E_dihed  =         0.0000 E_impro  =         0.0000 E_vdwl   =        -0.0053 
E_coul   =         0.0000 E_long   =         0.0000 Press    =         0.0043 
---------------- Step    10500 ----- CPU =     76.7663 (sec) ----------------
TotEng   =         3.4983 KinEng   =         1.6235 Temp     =         1.0823 
PotEng   =         1.8748 E_bond   =         1.8798 E_angle  =         0.0000 
E_dihed  =         0.0000 E_impro  =         0.0000 E_vdwl   =        -0.0051 
E_coul   =         0.0000 E_long   =         0.0000 Press    =         0.0042 
---------------- Step    10600 ----- CPU =     77.4400 (sec) ----------------
TotEng   =         3.4935 KinEng   =         1.6196 Temp     =         1.0798 
PotEng   =         1.8739 E_bond   =         1.8790 E_angle  =         0.0000 
E_dihed  =         0.0000 E_impro  =         0.0000 E_vdwl   =        -0.0050 
E_coul   =         0.0000 E_long   =         0.0000 Press    =         0.0042 
---------------- Step    10700 ----- CPU =     78.1089 (sec) ----------------
TotEng   =         3.4901 KinEng   =         1.6170 Temp     =         1.0780 
PotEng   =         1.8731 E_bond   =         1.8788 E_angle  =         0.0000 
E_dihed  =         0.0000 E_impro  =         0.0000 E_vdwl   =        -0.0057 
E_coul   =         0.0000 E_long   =         0.0000 Press    =         0.0044 
---------------- Step    10800 ----- CPU =     78.7843 (sec) ----------------
TotEng   =         3.4871 KinEng   =         1.6128 Temp     =         1.0752 
PotEng   =         1.8744 E_bond   =         1.8804 E_angle  =         0.0000 
E_dihed  =         0.0000 E_impro  =         0.0000 E_vdwl   =        -0.0060 
E_coul   =         0.0000 E_long   =         0.0000 Press    =         0.0041 
---------------- Step    10900 ----- CPU =     79.5094 (sec) ----------------
TotEng   =         3.4882 KinEng   =         1.6133 Temp     =         1.0755 
PotEng   =         1.8750 E_bond   =         1.8783 E_angle  =         0.0000 
E_dihed  =         0.0000 E_impro  =         0.0000 E_vdwl   =        -0.0033 
E_coul   =         0.0000 E_long   =         0.0000 Press    =         0.0043 
---------------- Step    11000 ----- CPU =     80.2616 (sec) ----------------
TotEng   =         3.4837 KinEng   =         1.6098 Temp     =         1.0732 
PotEng   =         1.8739 E_bond   =         1.8794 E_angle  =         0.0000 
E_dihed  =         0.0000 E_impro  =         0.0000 E_vdwl   =        -0.0055 
E_coul   =         0.0000 E_long   =         0.0000 Press    =         0.0043 
---------------- Step    11100 ----- CPU =     80.9526 (sec) ----------------
TotEng   =         3.4804 KinEng   =         1.6075 Temp     =         1.0717 
PotEng   =         1.8730 E_bond   =         1.8784 E_angle  =         0.0000 
E_dihed  =         0.0000 E_impro  =         0.0000 E_vdwl   =        -0.0054 
E_coul   =         0.0000 E_long   =         0.0000 Press    =         0.0042 
---------------- Step    11200 ----- CPU =     81.6400 (sec) ----------------
TotEng   =         3.4771 KinEng   =         1.6044 Temp     =         1.0696 
PotEng   =         1.8727 E_bond   =         1.8784 E_angle  =         0.0000 
E_dihed  =         0.0000 E_impro  =         0.0000 E_vdwl   =        -0.0057 
E_coul   =         0.0000 E_long   =         0.0000 Press    =         0.0043 
---------------- Step    11300 ----- CPU =     82.3735 (sec) ----------------
TotEng   =         3.4772 KinEng   =         1.6040 Temp     =         1.0694 
PotEng   =         1.8731 E_bond   =         1.8788 E_angle  =         0.0000 
E_dihed  =         0.0000 E_impro  =         0.0000 E_vdwl   =        -0.0057 
E_coul   =         0.0000 E_long   =         0.0000 Press    =         0.0042 
---------------- Step    11400 ----- CPU =     83.1407 (sec) ----------------
TotEng   =         3.4749 KinEng   =         1.6027 Temp     =         1.0685 
PotEng   =         1.8722 E_bond   =         1.8777 E_angle  =         0.0000 
E_dihed  =         0.0000 E_impro  =         0.0000 E_vdwl   =        -0.0055 
E_coul   =         0.0000 E_long   =         0.0000 Press    =         0.0042 
---------------- Step    11500 ----- CPU =     83.9078 (sec) ----------------
TotEng   =         3.4713 KinEng   =         1.5990 Temp     =         1.0660 
PotEng   =         1.8723 E_bond   =         1.8779 E_angle  =         0.0000 
E_dihed  =         0.0000 E_impro  =         0.0000 E_vdwl   =        -0.0055 
E_coul   =         0.0000 E_long   =         0.0000 Press    =         0.0042 
---------------- Step    11600 ----- CPU =     84.7414 (sec) ----------------
TotEng   =         3.4684 KinEng   =         1.5948 Temp     =         1.0632 
PotEng   =         1.8736 E_bond   =         1.8791 E_angle  =         0.0000 
E_dihed  =         0.0000 E_impro  =         0.0000 E_vdwl   =        -0.0055 
E_coul   =         0.0000 E_long   =         0.0000 Press    =         0.0042 
---------------- Step    11700 ----- CPU =     85.5772 (sec) ----------------
TotEng   =         3.4657 KinEng   =         1.5936 Temp     =         1.0624 
PotEng   =         1.8721 E_bond   =         1.8782 E_angle  =         0.0000 
E_dihed  =         0.0000 E_impro  =         0.0000 E_vdwl   =        -0.0061 
E_coul   =         0.0000 E_long   =         0.0000 Press    =         0.0043 
---------------- Step    11800 ----- CPU =     86.3517 (sec) ----------------
TotEng   =         3.4650 KinEng   =         1.5923 Temp     =         1.0615 
PotEng   =         1.8727 E_bond   =         1.8783 E_angle  =         0.0000 
E_dihed  =         0.0000 E_impro  =         0.0000 E_vdwl   =        -0.0056 
E_coul   =         0.0000 E_long   =         0.0000 Press    =         0.0042 
---------------- Step    11900 ----- CPU =     87.1018 (sec) ----------------
TotEng   =         3.4625 KinEng   =         1.5906 Temp     =         1.0604 
PotEng   =         1.8719 E_bond   =         1.8777 E_angle  =         0.0000 
E_dihed  =         0.0000 E_impro  =         0.0000 E_vdwl   =        -0.0058 
E_coul   =         0.0000 E_long   =         0.0000 Press    =         0.0042 
---------------- Step    12000 ----- CPU =     87.8360 (sec) ----------------
TotEng   =         3.4608 KinEng   =         1.5877 Temp     =         1.0585 
PotEng   =         1.8731 E_bond   =         1.8787 E_angle  =         0.0000 
E_dihed  =         0.0000 E_impro  =         0.0000 E_vdwl   =        -0.0056 
E_coul   =         0.0000 E_long   =         0.0000 Press    =         0.0042 
---------------- Step    12100 ----- CPU =     88.5942 (sec) ----------------
TotEng   =         3.4592 KinEng   =         1.5879 Temp     =         1.0586 
PotEng   =         1.8712 E_bond   =         1.8776 E_angle  =         0.0000 
E_dihed  =         0.0000 E_impro  =         0.0000 E_vdwl   =        -0.0063 
E_coul   =         0.0000 E_long   =         0.0000 Press    =         0.0042 
---------------- Step    12200 ----- CPU =     89.2758 (sec) ----------------
TotEng   =         3.4578 KinEng   =         1.5888 Temp     =         1.0592 
PotEng   =         1.8690 E_bond   =         1.8746 E_angle  =         0.0000 
E_dihed  =         0.0000 E_impro  =         0.0000 E_vdwl   =        -0.0056 
E_coul   =         0.0000 E_long   =         0.0000 Press    =         0.0042 
---------------- Step    12300 ----- CPU =     89.9420 (sec) ----------------
TotEng   =         3.4540 KinEng   =         1.5819 Temp     =         1.0546 
PotEng   =         1.8721 E_bond   =         1.8779 E_angle  =         0.0000 
E_dihed  =         0.0000 E_impro  =         0.0000 E_vdwl   =        -0.0058 
E_coul   =         0.0000 E_long   =         0.0000 Press    =         0.0041 
---------------- Step    12400 ----- CPU =     90.6116 (sec) ----------------
TotEng   =         3.4494 KinEng   =         1.5779 Temp     =         1.0519 
PotEng   =         1.8715 E_bond   =         1.8776 E_angle  =         0.0000 
E_dihed  =         0.0000 E_impro  =         0.0000 E_vdwl   =        -0.0062 
E_coul   =         0.0000 E_long   =         0.0000 Press    =         0.0043 
---------------- Step    12500 ----- CPU =     91.3128 (sec) ----------------
TotEng   =         3.4500 KinEng   =         1.5782 Temp     =         1.0522 
PotEng   =         1.8718 E_bond   =         1.8777 E_angle  =         0.0000 
E_dihed  =         0.0000 E_impro  =         0.0000 E_vdwl   =        -0.0059 
E_coul   =         0.0000 E_long   =         0.0000 Press    =         0.0041 
---------------- Step    12600 ----- CPU =     91.9916 (sec) ----------------
TotEng   =         3.4475 KinEng   =         1.5779 Temp     =         1.0520 
PotEng   =         1.8696 E_bond   =         1.8753 E_angle  =         0.0000 
E_dihed  =         0.0000 E_impro  =         0.0000 E_vdwl   =        -0.0057 
E_coul   =         0.0000 E_long   =         0.0000 Press    =         0.0042 
---------------- Step    12700 ----- CPU =     92.6777 (sec) ----------------
TotEng   =         3.4463 KinEng   =         1.5756 Temp     =         1.0504 
PotEng   =         1.8707 E_bond   =         1.8765 E_angle  =         0.0000 
E_dihed  =         0.0000 E_impro  =         0.0000 E_vdwl   =        -0.0058 
E_coul   =         0.0000 E_long   =         0.0000 Press    =         0.0041 
---------------- Step    12800 ----- CPU =     93.3565 (sec) ----------------
TotEng   =         3.4466 KinEng   =         1.5740 Temp     =         1.0493 
PotEng   =         1.8726 E_bond   =         1.8763 E_angle  =         0.0000 
E_dihed  =         0.0000 E_impro  =         0.0000 E_vdwl   =        -0.0037 
E_coul   =         0.0000 E_long   =         0.0000 Press    =         0.0042 
---------------- Step    12900 ----- CPU =     94.0463 (sec) ----------------
TotEng   =         3.4425 KinEng   =         1.5714 Temp     =         1.0476 
PotEng   =         1.8711 E_bond   =         1.8773 E_angle  =         0.0000 
E_dihed  =         0.0000 E_impro  =         0.0000 E_vdwl   =        -0.0061 
E_coul   =         0.0000 E_long   =         0.0000 Press    =         0.0042 
---------------- Step    13000 ----- CPU =     94.7842 (sec) ----------------
TotEng   =         3.4421 KinEng   =         1.5714 Temp     =         1.0477 
PotEng   =         1.8706 E_bond   =         1.8766 E_angle  =         0.0000 
E_dihed  =         0.0000 E_impro  =         0.0000 E_vdwl   =        -0.0059 
E_coul   =         0.0000 E_long   =         0.0000 Press    =         0.0042 
---------------- Step    13100 ----- CPU =     95.4542 (sec) ----------------
TotEng   =         3.4404 KinEng   =         1.5718 Temp     =         1.0479 
PotEng   =         1.8686 E_bond   =         1.8748 E_angle  =         0.0000 
E_dihed  =         0.0000 E_impro  =         0.0000 E_vdwl   =        -0.0062 
E_coul   =         0.0000 E_long   =         0.0000 Press    =         0.0041 
---------------- Step    13200 ----- CPU =     96.1641 (sec) ----------------
TotEng   =         3.4403 KinEng   =         1.5694 Temp     =         1.0463 
PotEng   =         1.8709 E_bond   =         1.8773 E_angle  =         0.0000 
E_dihed  =         0.0000 E_impro  =         0.0000 E_vdwl   =        -0.0064 
E_coul   =         0.0000 E_long   =         0.0000 Press    =         0.0042 
---------------- Step    13300 ----- CPU =     96.8434 (sec) ----------------
TotEng   =         3.4413 KinEng   =         1.5690 Temp     =         1.0460 
PotEng   =         1.8723 E_bond   =         1.8770 E_angle  =         0.0000 
E_dihed  =         0.0000 E_impro  =         0.0000 E_vdwl   =        -0.0046 
E_coul   =         0.0000 E_long   =         0.0000 Press    =         0.0042 
---------------- Step    13400 ----- CPU =     97.5423 (sec) ----------------
TotEng   =         3.4390 KinEng   =         1.5689 Temp     =         1.0459 
PotEng   =         1.8701 E_bond   =         1.8768 E_angle  =         0.0000 
E_dihed  =         0.0000 E_impro  =         0.0000 E_vdwl   =        -0.0067 
E_coul   =         0.0000 E_long   =         0.0000 Press    =         0.0041 
---------------- Step    13500 ----- CPU =     98.2547 (sec) ----------------
TotEng   =         3.4371 KinEng   =         1.5675 Temp     =         1.0450 
PotEng   =         1.8696 E_bond   =         1.8758 E_angle  =         0.0000 
E_dihed  =         0.0000 E_impro  =         0.0000 E_vdwl   =        -0.0062 
E_coul   =         0.0000 E_long   =         0.0000 Press    =         0.0041 
---------------- Step    13600 ----- CPU =     98.9566 (sec) ----------------
TotEng   =         3.4370 KinEng   =         1.5672 Temp     =         1.0448 
PotEng   =         1.8698 E_bond   =         1.8761 E_angle  =         0.0000 
E_dihed  =         0.0000 E_impro  =         0.0000 E_vdwl   =        -0.0063 
E_coul   =         0.0000 E_long   =         0.0000 Press    =         0.0041 
---------------- Step    13700 ----- CPU =     99.6209 (sec) ----------------
TotEng   =         3.4331 KinEng   =         1.5635 Temp     =         1.0424 
PotEng   =         1.8696 E_bond   =         1.8755 E_angle  =         0.0000 
E_dihed  =         0.0000 E_impro  =         0.0000 E_vdwl   =        -0.0059 
E_coul   =         0.0000 E_long   =         0.0000 Press    =         0.0042 
---------------- Step    13800 ----- CPU =    100.3113 (sec) ----------------
TotEng   =         3.4310 KinEng   =         1.5606 Temp     =         1.0404 
PotEng   =         1.8704 E_bond   =         1.8759 E_angle  =         0.0000 
E_dihed  =         0.0000 E_impro  =         0.0000 E_vdwl   =        -0.0055 
E_coul   =         0.0000 E_long   =         0.0000 Press    =         0.0041 
---------------- Step    13900 ----- CPU =    101.0325 (sec) ----------------
TotEng   =         3.4276 KinEng   =         1.5576 Temp     =         1.0384 
PotEng   =         1.8700 E_bond   =         1.8763 E_angle  =         0.0000 
E_dihed  =         0.0000 E_impro  =         0.0000 E_vdwl   =        -0.0063 
E_coul   =         0.0000 E_long   =         0.0000 Press    =         0.0041 
---------------- Step    14000 ----- CPU =    101.7174 (sec) ----------------
TotEng   =         3.4288 KinEng   =         1.5570 Temp     =         1.0380 
PotEng   =         1.8719 E_bond   =         1.8761 E_angle  =         0.0000 
E_dihed  =         0.0000 E_impro  =         0.0000 E_vdwl   =        -0.0042 
E_coul   =         0.0000 E_long   =         0.0000 Press    =         0.0042 
---------------- Step    14100 ----- CPU =    102.3624 (sec) ----------------
TotEng   =         3.4263 KinEng   =         1.5571 Temp     =         1.0381 
PotEng   =         1.8691 E_bond   =         1.8758 E_angle  =         0.0000 
E_dihed  =         0.0000 E_impro  =         0.0000 E_vdwl   =        -0.0067 
E_coul   =         0.0000 E_long   =         0.0000 Press    =         0.0041 
---------------- Step    14200 ----- CPU =    102.9918 (sec) ----------------
TotEng   =         3.4251 KinEng   =         1.5558 Temp     =         1.0372 
PotEng   =         1.8693 E_bond   =         1.8755 E_angle  =         0.0000 
E_dihed  =         0.0000 E_impro  =         0.0000 E_vdwl   =        -0.0062 
E_coul   =         0.0000 E_long   =         0.0000 Press    =         0.0042 
---------------- Step    14300 ----- CPU =    103.6242 (sec) ----------------
TotEng   =         3.4233 KinEng   =         1.5527 Temp     =         1.0352 
PotEng   =         1.8705 E_bond   =         1.8770 E_angle  =         0.0000 
E_dihed  =         0.0000 E_impro  =         0.0000 E_vdwl   =        -0.0065 
E_coul   =         0.0000 E_long   =         0.0000 Press    =         0.0040 
---------------- Step    14400 ----- CPU =    104.3031 (sec) ----------------
TotEng   =         3.4220 KinEng   =         1.5520 Temp     =         1.0347 
PotEng   =         1.8699 E_bond   =         1.8758 E_angle  =         0.0000 
E_dihed  =         0.0000 E_impro  =         0.0000 E_vdwl   =        -0.0059 
E_coul   =         0.0000 E_long   =         0.0000 Press    =         0.0043 
---------------- Step    14500 ----- CPU =    104.9442 (sec) ----------------
TotEng   =         3.4222 KinEng   =         1.5523 Temp     =         1.0349 
PotEng   =         1.8700 E_bond   =         1.8763 E_angle  =         0.0000 
E_dihed  =         0.0000 E_impro  =         0.0000 E_vdwl   =        -0.0064 
E_coul   =         0.0000 E_long   =         0.0000 Press    =         0.0040 
---------------- Step    14600 ----- CPU =    105.6291 (sec) ----------------
TotEng   =         3.4234 KinEng   =         1.5514 Temp     =         1.0343 
PotEng   =         1.8721 E_bond   =         1.8764 E_angle  =         0.0000 
E_dihed  =         0.0000 E_impro  =         0.0000 E_vdwl   =        -0.0043 
E_coul   =         0.0000 E_long   =         0.0000 Press    =         0.0042 
---------------- Step    14700 ----- CPU =    106.2859 (sec) ----------------
TotEng   =         3.4193 KinEng   =         1.5524 Temp     =         1.0349 
PotEng   =         1.8670 E_bond   =         1.8734 E_angle  =         0.0000 
E_dihed  =         0.0000 E_impro  =         0.0000 E_vdwl   =        -0.0064 
E_coul   =         0.0000 E_long   =         0.0000 Press    =         0.0041 
---------------- Step    14800 ----- CPU =    107.1302 (sec) ----------------
TotEng   =         3.4181 KinEng   =         1.5491 Temp     =         1.0328 
PotEng   =         1.8690 E_bond   =         1.8751 E_angle  =         0.0000 
E_dihed  =         0.0000 E_impro  =         0.0000 E_vdwl   =        -0.0061 
E_coul   =         0.0000 E_long   =         0.0000 Press    =         0.0041 
---------------- Step    14900 ----- CPU =    107.9382 (sec) ----------------
TotEng   =         3.4187 KinEng   =         1.5492 Temp     =         1.0328 
PotEng   =         1.8696 E_bond   =         1.8758 E_angle  =         0.0000 
E_dihed  =         0.0000 E_impro  =         0.0000 E_vdwl   =        -0.0062 
E_coul   =         0.0000 E_long   =         0.0000 Press    =         0.0040 
---------------- Step    15000 ----- CPU =    108.6746 (sec) ----------------
TotEng   =         3.4177 KinEng   =         1.5482 Temp     =         1.0321 
PotEng   =         1.8695 E_bond   =         1.8757 E_angle  =         0.0000 
E_dihed  =         0.0000 E_impro  =         0.0000 E_vdwl   =        -0.0062 
E_coul   =         0.0000 E_long   =         0.0000 Press    =         0.0042 
---------------- Step    15100 ----- CPU =    109.4617 (sec) ----------------
TotEng   =         3.4157 KinEng   =         1.5473 Temp     =         1.0316 
PotEng   =         1.8684 E_bond   =         1.8750 E_angle  =         0.0000 
E_dihed  =         0.0000 E_impro  =         0.0000 E_vdwl   =        -0.0066 
E_coul   =         0.0000 E_long   =         0.0000 Press    =         0.0040 
---------------- Step    15200 ----- CPU =    110.3424 (sec) ----------------
TotEng   =         3.4132 KinEng   =         1.5446 Temp     =         1.0298 
PotEng   =         1.8686 E_bond   =         1.8752 E_angle  =         0.0000 
E_dihed  =         0.0000 E_impro  =         0.0000 E_vdwl   =        -0.0066 
E_coul   =         0.0000 E_long   =         0.0000 Press    =         0.0041 
---------------- Step    15300 ----- CPU =    111.2615 (sec) ----------------
TotEng   =         3.4135 KinEng   =         1.5438 Temp     =         1.0292 
PotEng   =         1.8697 E_bond   =         1.8755 E_angle  =         0.0000 
E_dihed  =         0.0000 E_impro  =         0.0000 E_vdwl   =        -0.0058 
E_coul   =         0.0000 E_long   =         0.0000 Press    =         0.0041 
---------------- Step    15400 ----- CPU =    112.1853 (sec) ----------------
TotEng   =         3.4125 KinEng   =         1.5437 Temp     =         1.0292 
PotEng   =         1.8688 E_bond   =         1.8756 E_angle  =         0.0000 
E_dihed  =         0.0000 E_impro  =         0.0000 E_vdwl   =        -0.0067 
E_coul   =         0.0000 E_long   =         0.0000 Press    =         0.0041 
---------------- Step    15500 ----- CPU =    113.1008 (sec) ----------------
TotEng   =         3.4128 KinEng   =         1.5449 Temp     =         1.0300 
PotEng   =         1.8679 E_bond   =         1.8745 E_angle  =         0.0000 
E_dihed  =         0.0000 E_impro  =         0.0000 E_vdwl   =        -0.0067 
E_coul   =         0.0000 E_long   =         0.0000 Press    =         0.0040 
---------------- Step    15600 ----- CPU =    113.9344 (sec) ----------------
TotEng   =         3.4123 KinEng   =         1.5431 Temp     =         1.0288 
PotEng   =         1.8692 E_bond   =         1.8758 E_angle  =         0.0000 
E_dihed  =         0.0000 E_impro  =         0.0000 E_vdwl   =        -0.0066 
E_coul   =         0.0000 E_long   =         0.0000 Press    =         0.0041 
---------------- Step    15700 ----- CPU =    114.7817 (sec) ----------------
TotEng   =         3.4129 KinEng   =         1.5438 Temp     =         1.0292 
PotEng   =         1.8691 E_bond   =         1.8754 E_angle  =         0.0000 
E_dihed  =         0.0000 E_impro  =         0.0000 E_vdwl   =        -0.0063 
E_coul   =         0.0000 E_long   =         0.0000 Press    =         0.0042 
---------------- Step    15800 ----- CPU =    115.6907 (sec) ----------------
TotEng   =         3.4127 KinEng   =         1.5420 Temp     =         1.0280 
PotEng   =         1.8707 E_bond   =         1.8774 E_angle  =         0.0000 
E_dihed  =         0.0000 E_impro  =         0.0000 E_vdwl   =        -0.0066 
E_coul   =         0.0000 E_long   =         0.0000 Press    =         0.0040 
---------------- Step    15900 ----- CPU =    116.5620 (sec) ----------------
TotEng   =         3.4120 KinEng   =         1.5434 Temp     =         1.0290 
PotEng   =         1.8685 E_bond   =         1.8752 E_angle  =         0.0000 
E_dihed  =         0.0000 E_impro  =         0.0000 E_vdwl   =        -0.0067 
E_coul   =         0.0000 E_long   =         0.0000 Press    =         0.0041 
---------------- Step    16000 ----- CPU =    117.4557 (sec) ----------------
TotEng   =         3.4114 KinEng   =         1.5431 Temp     =         1.0287 
PotEng   =         1.8684 E_bond   =         1.8748 E_angle  =         0.0000 
E_dihed  =         0.0000 E_impro  =         0.0000 E_vdwl   =        -0.0064 
E_coul   =         0.0000 E_long   =         0.0000 Press    =         0.0041 
---------------- Step    16100 ----- CPU =    118.3081 (sec) ----------------
TotEng   =         3.4118 KinEng   =         1.5441 Temp     =         1.0294 
PotEng   =         1.8677 E_bond   =         1.8745 E_angle  =         0.0000 
E_dihed  =         0.0000 E_impro  =         0.0000 E_vdwl   =        -0.0068 
E_coul   =         0.0000 E_long   =         0.0000 Press    =         0.0040 
---------------- Step    16200 ----- CPU =    119.1880 (sec) ----------------
TotEng   =         3.4118 KinEng   =         1.5427 Temp     =         1.0285 
PotEng   =         1.8691 E_bond   =         1.8757 E_angle  =         0.0000 
E_dihed  =         0.0000 E_impro  =         0.0000 E_vdwl   =        -0.0065 
E_coul   =         0.0000 E_long   =         0.0000 Press    =         0.0040 
---------------- Step    16300 ----- CPU =    120.0628 (sec) ----------------
TotEng   =         3.4098 KinEng   =         1.5412 Temp     =         1.0275 
PotEng   =         1.8685 E_bond   =         1.8746 E_angle  =         0.0000 
E_dihed  =         0.0000 E_impro  =         0.0000 E_vdwl   =        -0.0061 
E_coul   =         0.0000 E_long   =         0.0000 Press    =         0.0043 
---------------- Step    16400 ----- CPU =    120.9454 (sec) ----------------
TotEng   =         3.4075 KinEng   =         1.5387 Temp     =         1.0258 
PotEng   =         1.8688 E_bond   =         1.8759 E_angle  =         0.0000 
E_dihed  =         0.0000 E_impro  =         0.0000 E_vdwl   =        -0.0071 
E_coul   =         0.0000 E_long   =         0.0000 Press    =         0.0039 
---------------- Step    16500 ----- CPU =    121.8758 (sec) ----------------
TotEng   =         3.4074 KinEng   =         1.5402 Temp     =         1.0268 
PotEng   =         1.8672 E_bond   =         1.8740 E_angle  =         0.0000 
E_dihed  =         0.0000 E_impro  =         0.0000 E_vdwl   =        -0.0068 
E_coul   =         0.0000 E_long   =         0.0000 Press    =         0.0042 
---------------- Step    16600 ----- CPU =    122.7768 (sec) ----------------
TotEng   =         3.4063 KinEng   =         1.5376 Temp     =         1.0251 
PotEng   =         1.8687 E_bond   =         1.8753 E_angle  =         0.0000 
E_dihed  =         0.0000 E_impro  =         0.0000 E_vdwl   =        -0.0066 
E_coul   =         0.0000 E_long   =         0.0000 Press    =         0.0040 
---------------- Step    16700 ----- CPU =    123.7297 (sec) ----------------
TotEng   =         3.4054 KinEng   =         1.5367 Temp     =         1.0245 
PotEng   =         1.8687 E_bond   =         1.8755 E_angle  =         0.0000 
E_dihed  =         0.0000 E_impro  =         0.0000 E_vdwl   =        -0.0068 
E_coul   =         0.0000 E_long   =         0.0000 Press    =         0.0042 
---------------- Step    16800 ----- CPU =    124.7133 (sec) ----------------
TotEng   =         3.4045 KinEng   =         1.5346 Temp     =         1.0231 
PotEng   =         1.8699 E_bond   =         1.8765 E_angle  =         0.0000 
E_dihed  =         0.0000 E_impro  =         0.0000 E_vdwl   =        -0.0067 
E_coul   =         0.0000 E_long   =         0.0000 Press    =         0.0040 
---------------- Step    16900 ----- CPU =    125.6310 (sec) ----------------
TotEng   =         3.4031 KinEng   =         1.5358 Temp     =         1.0239 
PotEng   =         1.8672 E_bond   =         1.8737 E_angle  =         0.0000 
E_dihed  =         0.0000 E_impro  =         0.0000 E_vdwl   =        -0.0064 
E_coul   =         0.0000 E_long   =         0.0000 Press    =         0.0041 
---------------- Step    17000 ----- CPU =    126.4073 (sec) ----------------
TotEng   =         3.4013 KinEng   =         1.5345 Temp     =         1.0230 
PotEng   =         1.8668 E_bond   =         1.8737 E_angle  =         0.0000 
E_dihed  =         0.0000 E_impro  =         0.0000 E_vdwl   =        -0.0069 
E_coul   =         0.0000 E_long   =         0.0000 Press    =         0.0041 
---------------- Step    17100 ----- CPU =    127.1496 (sec) ----------------
TotEng   =         3.4014 KinEng   =         1.5329 Temp     =         1.0219 
PotEng   =         1.8685 E_bond   =         1.8726 E_angle  =         0.0000 
E_dihed  =         0.0000 E_impro  =         0.0000 E_vdwl   =        -0.0041 
E_coul   =         0.0000 E_long   =         0.0000 Press    =         0.0041 
---------------- Step    17200 ----- CPU =    127.8591 (sec) ----------------
TotEng   =         3.3980 KinEng   =         1.5305 Temp     =         1.0204 
PotEng   =         1.8675 E_bond   =         1.8738 E_angle  =         0.0000 
E_dihed  =         0.0000 E_impro  =         0.0000 E_vdwl   =        -0.0063 
E_coul   =         0.0000 E_long   =         0.0000 Press    =         0.0040 
---------------- Step    17300 ----- CPU =    128.5830 (sec) ----------------
TotEng   =         3.3953 KinEng   =         1.5284 Temp     =         1.0190 
PotEng   =         1.8669 E_bond   =         1.8734 E_angle  =         0.0000 
E_dihed  =         0.0000 E_impro  =         0.0000 E_vdwl   =        -0.0065 
E_coul   =         0.0000 E_long   =         0.0000 Press    =         0.0041 
---------------- Step    17400 ----- CPU =    129.3595 (sec) ----------------
TotEng   =         3.3932 KinEng   =         1.5262 Temp     =         1.0175 
PotEng   =         1.8670 E_bond   =         1.8742 E_angle  =         0.0000 
E_dihed  =         0.0000 E_impro  =         0.0000 E_vdwl   =        -0.0072 
E_coul   =         0.0000 E_long   =         0.0000 Press    =         0.0040 
---------------- Step    17500 ----- CPU =    130.0627 (sec) ----------------
TotEng   =         3.3904 KinEng   =         1.5227 Temp     =         1.0152 
PotEng   =         1.8677 E_bond   =         1.8749 E_angle  =         0.0000 
E_dihed  =         0.0000 E_impro  =         0.0000 E_vdwl   =        -0.0073 
E_coul   =         0.0000 E_long   =         0.0000 Press    =         0.0040 
---------------- Step    17600 ----- CPU =    130.8112 (sec) ----------------
TotEng   =         3.3896 KinEng   =         1.5233 Temp     =         1.0155 
PotEng   =         1.8663 E_bond   =         1.8737 E_angle  =         0.0000 
E_dihed  =         0.0000 E_impro  =         0.0000 E_vdwl   =        -0.0075 
E_coul   =         0.0000 E_long   =         0.0000 Press    =         0.0041 
---------------- Step    17700 ----- CPU =    131.7085 (sec) ----------------
TotEng   =         3.3905 KinEng   =         1.5239 Temp     =         1.0160 
PotEng   =         1.8666 E_bond   =         1.8738 E_angle  =         0.0000 
E_dihed  =         0.0000 E_impro  =         0.0000 E_vdwl   =        -0.0072 
E_coul   =         0.0000 E_long   =         0.0000 Press    =         0.0040 
---------------- Step    17800 ----- CPU =    132.6272 (sec) ----------------
TotEng   =         3.3887 KinEng   =         1.5215 Temp     =         1.0143 
PotEng   =         1.8672 E_bond   =         1.8750 E_angle  =         0.0000 
E_dihed  =         0.0000 E_impro  =         0.0000 E_vdwl   =        -0.0077 
E_coul   =         0.0000 E_long   =         0.0000 Press    =         0.0041 
---------------- Step    17900 ----- CPU =    133.5411 (sec) ----------------
TotEng   =         3.3898 KinEng   =         1.5237 Temp     =         1.0158 
PotEng   =         1.8661 E_bond   =         1.8735 E_angle  =         0.0000 
E_dihed  =         0.0000 E_impro  =         0.0000 E_vdwl   =        -0.0074 
E_coul   =         0.0000 E_long   =         0.0000 Press    =         0.0039 
---------------- Step    18000 ----- CPU =    134.4787 (sec) ----------------
TotEng   =         3.3877 KinEng   =         1.5229 Temp     =         1.0153 
PotEng   =         1.8648 E_bond   =         1.8727 E_angle  =         0.0000 
E_dihed  =         0.0000 E_impro  =         0.0000 E_vdwl   =        -0.0079 
E_coul   =         0.0000 E_long   =         0.0000 Press    =         0.0041 
---------------- Step    18100 ----- CPU =    135.3494 (sec) ----------------
TotEng   =         3.3873 KinEng   =         1.5217 Temp     =         1.0145 
PotEng   =         1.8655 E_bond   =         1.8734 E_angle  =         0.0000 
E_dihed  =         0.0000 E_impro  =         0.0000 E_vdwl   =        -0.0079 
E_coul   =         0.0000 E_long   =         0.0000 Press    =         0.0040 
---------------- Step    18200 ----- CPU =    136.0540 (sec) ----------------
TotEng   =         3.3882 KinEng   =         1.5218 Temp     =         1.0146 
PotEng   =         1.8664 E_bond   =         1.8738 E_angle  =         0.0000 
E_dihed  =         0.0000 E_impro  =         0.0000 E_vdwl   =        -0.0074 
E_coul   =         0.0000 E_long   =         0.0000 Press    =         0.0040 
---------------- Step    18300 ----- CPU =    136.7343 (sec) ----------------
TotEng   =         3.3903 KinEng   =         1.5211 Temp     =         1.0141 
PotEng   =         1.8692 E_bond   =         1.8734 E_angle  =         0.0000 
E_dihed  =         0.0000 E_impro  =         0.0000 E_vdwl   =        -0.0041 
E_coul   =         0.0000 E_long   =         0.0000 Press    =         0.0042 
---------------- Step    18400 ----- CPU =    137.5401 (sec) ----------------
TotEng   =         3.3879 KinEng   =         1.5210 Temp     =         1.0140 
PotEng   =         1.8669 E_bond   =         1.8739 E_angle  =         0.0000 
E_dihed  =         0.0000 E_impro  =         0.0000 E_vdwl   =        -0.0070 
E_coul   =         0.0000 E_long   =         0.0000 Press    =         0.0039 
---------------- Step    18500 ----- CPU =    138.2328 (sec) ----------------
TotEng   =         3.3870 KinEng   =         1.5207 Temp     =         1.0139 
PotEng   =         1.8663 E_bond   =         1.8727 E_angle  =         0.0000 
E_dihed  =         0.0000 E_impro  =         0.0000 E_vdwl   =        -0.0065 
E_coul   =         0.0000 E_long   =         0.0000 Press    =         0.0040 
---------------- Step    18600 ----- CPU =    138.9154 (sec) ----------------
TotEng   =         3.3867 KinEng   =         1.5209 Temp     =         1.0140 
PotEng   =         1.8657 E_bond   =         1.8731 E_angle  =         0.0000 
E_dihed  =         0.0000 E_impro  =         0.0000 E_vdwl   =        -0.0074 
E_coul   =         0.0000 E_long   =         0.0000 Press    =         0.0040 
---------------- Step    18700 ----- CPU =    139.6087 (sec) ----------------
TotEng   =         3.3893 KinEng   =         1.5191 Temp     =         1.0128 
PotEng   =         1.8701 E_bond   =         1.8727 E_angle  =         0.0000 
E_dihed  =         0.0000 E_impro  =         0.0000 E_vdwl   =        -0.0026 
E_coul   =         0.0000 E_long   =         0.0000 Press    =         0.0040 
---------------- Step    18800 ----- CPU =    140.3129 (sec) ----------------
TotEng   =         3.3847 KinEng   =         1.5188 Temp     =         1.0126 
PotEng   =         1.8658 E_bond   =         1.8729 E_angle  =         0.0000 
E_dihed  =         0.0000 E_impro  =         0.0000 E_vdwl   =        -0.0071 
E_coul   =         0.0000 E_long   =         0.0000 Press    =         0.0042 
---------------- Step    18900 ----- CPU =    141.0052 (sec) ----------------
TotEng   =         3.3864 KinEng   =         1.5171 Temp     =         1.0114 
PotEng   =         1.8693 E_bond   =         1.8743 E_angle  =         0.0000 
E_dihed  =         0.0000 E_impro  =         0.0000 E_vdwl   =        -0.0050 
E_coul   =         0.0000 E_long   =         0.0000 Press    =         0.0039 
---------------- Step    19000 ----- CPU =    141.7712 (sec) ----------------
TotEng   =         3.3840 KinEng   =         1.5180 Temp     =         1.0120 
PotEng   =         1.8661 E_bond   =         1.8729 E_angle  =         0.0000 
E_dihed  =         0.0000 E_impro  =         0.0000 E_vdwl   =        -0.0068 
E_coul   =         0.0000 E_long   =         0.0000 Press    =         0.0041 
---------------- Step    19100 ----- CPU =    142.5117 (sec) ----------------
TotEng   =         3.3829 KinEng   =         1.5149 Temp     =         1.0099 
PotEng   =         1.8680 E_bond   =         1.8750 E_angle  =         0.0000 
E_dihed  =         0.0000 E_impro  =         0.0000 E_vdwl   =        -0.0070 
E_coul   =         0.0000 E_long   =         0.0000 Press    =         0.0038 
---------------- Step    19200 ----- CPU =    143.2008 (sec) ----------------
TotEng   =         3.3816 KinEng   =         1.5150 Temp     =         1.0100 
PotEng   =         1.8665 E_bond   =         1.8737 E_angle  =         0.0000 
E_dihed  =         0.0000 E_impro  =         0.0000 E_vdwl   =        -0.0071 
E_coul   =         0.0000 E_long   =         0.0000 Press    =         0.0041 
---------------- Step    19300 ----- CPU =    143.8873 (sec) ----------------
TotEng   =         3.3817 KinEng   =         1.5136 Temp     =         1.0091 
PotEng   =         1.8681 E_bond   =         1.8741 E_angle  =         0.0000 
E_dihed  =         0.0000 E_impro  =         0.0000 E_vdwl   =        -0.0060 
E_coul   =         0.0000 E_long   =         0.0000 Press    =         0.0040 
---------------- Step    19400 ----- CPU =    144.5640 (sec) ----------------
TotEng   =         3.3809 KinEng   =         1.5129 Temp     =         1.0086 
PotEng   =         1.8679 E_bond   =         1.8743 E_angle  =         0.0000 
E_dihed  =         0.0000 E_impro  =         0.0000 E_vdwl   =        -0.0063 
E_coul   =         0.0000 E_long   =         0.0000 Press    =         0.0041 
---------------- Step    19500 ----- CPU =    145.2540 (sec) ----------------
TotEng   =         3.3785 KinEng   =         1.5101 Temp     =         1.0067 
PotEng   =         1.8685 E_bond   =         1.8751 E_angle  =         0.0000 
E_dihed  =         0.0000 E_impro  =         0.0000 E_vdwl   =        -0.0067 
E_coul   =         0.0000 E_long   =         0.0000 Press    =         0.0040 
---------------- Step    19600 ----- CPU =    146.0073 (sec) ----------------
TotEng   =         3.3771 KinEng   =         1.5106 Temp     =         1.0071 
PotEng   =         1.8665 E_bond   =         1.8736 E_angle  =         0.0000 
E_dihed  =         0.0000 E_impro  =         0.0000 E_vdwl   =        -0.0071 
E_coul   =         0.0000 E_long   =         0.0000 Press    =         0.0040 
---------------- Step    19700 ----- CPU =    146.7710 (sec) ----------------
TotEng   =         3.3761 KinEng   =         1.5109 Temp     =         1.0073 
PotEng   =         1.8652 E_bond   =         1.8727 E_angle  =         0.0000 
E_dihed  =         0.0000 E_impro  =         0.0000 E_vdwl   =        -0.0076 
E_coul   =         0.0000 E_long   =         0.0000 Press    =         0.0040 
---------------- Step    19800 ----- CPU =    147.4921 (sec) ----------------
TotEng   =         3.3766 KinEng   =         1.5117 Temp     =         1.0078 
PotEng   =         1.8649 E_bond   =         1.8723 E_angle  =         0.0000 
E_dihed  =         0.0000 E_impro  =         0.0000 E_vdwl   =        -0.0074 
E_coul   =         0.0000 E_long   =         0.0000 Press    =         0.0040 
---------------- Step    19900 ----- CPU =    148.1808 (sec) ----------------
TotEng   =         3.3812 KinEng   =         1.5138 Temp     =         1.0092 
PotEng   =         1.8674 E_bond   =         1.8719 E_angle  =         0.0000 
[...]
TotEng   =         3.3624 KinEng   =         1.4970 Temp     =         0.9980 
PotEng   =         1.8654 E_bond   =         1.8730 E_angle  =         0.0000 
E_dihed  =         0.0000 E_impro  =         0.0000 E_vdwl   =        -0.0075 
E_coul   =         0.0000 E_long   =         0.0000 Press    =         0.0039 
---------------- Step   195400 ----- CPU =   1529.8755 (sec) ----------------
TotEng   =         3.3650 KinEng   =         1.4988 Temp     =         0.9992 
PotEng   =         1.8661 E_bond   =         1.8727 E_angle  =         0.0000 
E_dihed  =         0.0000 E_impro  =         0.0000 E_vdwl   =        -0.0065 
E_coul   =         0.0000 E_long   =         0.0000 Press    =         0.0040 
---------------- Step   195500 ----- CPU =   1530.9075 (sec) ----------------
TotEng   =         3.3655 KinEng   =         1.4997 Temp     =         0.9998 
PotEng   =         1.8658 E_bond   =         1.8728 E_angle  =         0.0000 
E_dihed  =         0.0000 E_impro  =         0.0000 E_vdwl   =        -0.0070 
E_coul   =         0.0000 E_long   =         0.0000 Press    =         0.0040 
---------------- Step   195600 ----- CPU =   1531.9712 (sec) ----------------
TotEng   =         3.3630 KinEng   =         1.4965 Temp     =         0.9977 
PotEng   =         1.8665 E_bond   =         1.8734 E_angle  =         0.0000 
E_dihed  =         0.0000 E_impro  =         0.0000 E_vdwl   =        -0.0070 
E_coul   =         0.0000 E_long   =         0.0000 Press    =         0.0039 
---------------- Step   195700 ----- CPU =   1532.9584 (sec) ----------------
TotEng   =         3.3619 KinEng   =         1.4988 Temp     =         0.9992 
PotEng   =         1.8631 E_bond   =         1.8712 E_angle  =         0.0000 
E_dihed  =         0.0000 E_impro  =         0.0000 E_vdwl   =        -0.0081 
E_coul   =         0.0000 E_long   =         0.0000 Press    =         0.0040 
---------------- Step   195800 ----- CPU =   1533.8161 (sec) ----------------
TotEng   =         3.3625 KinEng   =         1.4976 Temp     =         0.9984 
PotEng   =         1.8649 E_bond   =         1.8723 E_angle  =         0.0000 
E_dihed  =         0.0000 E_impro  =         0.0000 E_vdwl   =        -0.0074 
E_coul   =         0.0000 E_long   =         0.0000 Press    =         0.0039 
---------------- Step   195900 ----- CPU =   1534.7087 (sec) ----------------
TotEng   =         3.3643 KinEng   =         1.5004 Temp     =         1.0003 
PotEng   =         1.8639 E_bond   =         1.8713 E_angle  =         0.0000 
E_dihed  =         0.0000 E_impro  =         0.0000 E_vdwl   =        -0.0074 
E_coul   =         0.0000 E_long   =         0.0000 Press    =         0.0040 
---------------- Step   196000 ----- CPU =   1535.6480 (sec) ----------------
TotEng   =         3.3653 KinEng   =         1.4992 Temp     =         0.9995 
PotEng   =         1.8661 E_bond   =         1.8729 E_angle  =         0.0000 
E_dihed  =         0.0000 E_impro  =         0.0000 E_vdwl   =        -0.0068 
E_coul   =         0.0000 E_long   =         0.0000 Press    =         0.0040 
---------------- Step   196100 ----- CPU =   1536.4780 (sec) ----------------
TotEng   =         3.3654 KinEng   =         1.5000 Temp     =         1.0000 
PotEng   =         1.8654 E_bond   =         1.8720 E_angle  =         0.0000 
E_dihed  =         0.0000 E_impro  =         0.0000 E_vdwl   =        -0.0066 
E_coul   =         0.0000 E_long   =         0.0000 Press    =         0.0040 
---------------- Step   196200 ----- CPU =   1537.3309 (sec) ----------------
TotEng   =         3.3676 KinEng   =         1.5031 Temp     =         1.0021 
PotEng   =         1.8645 E_bond   =         1.8714 E_angle  =         0.0000 
E_dihed  =         0.0000 E_impro  =         0.0000 E_vdwl   =        -0.0069 
E_coul   =         0.0000 E_long   =         0.0000 Press    =         0.0039 
---------------- Step   196300 ----- CPU =   1538.1761 (sec) ----------------
TotEng   =         3.3679 KinEng   =         1.5034 Temp     =         1.0023 
PotEng   =         1.8645 E_bond   =         1.8718 E_angle  =         0.0000 
E_dihed  =         0.0000 E_impro  =         0.0000 E_vdwl   =        -0.0073 
E_coul   =         0.0000 E_long   =         0.0000 Press    =         0.0040 
---------------- Step   196400 ----- CPU =   1539.0291 (sec) ----------------
TotEng   =         3.3672 KinEng   =         1.5022 Temp     =         1.0015 
PotEng   =         1.8651 E_bond   =         1.8729 E_angle  =         0.0000 
E_dihed  =         0.0000 E_impro  =         0.0000 E_vdwl   =        -0.0078 
E_coul   =         0.0000 E_long   =         0.0000 Press    =         0.0039 
---------------- Step   196500 ----- CPU =   1539.8590 (sec) ----------------
TotEng   =         3.3679 KinEng   =         1.5038 Temp     =         1.0025 
PotEng   =         1.8641 E_bond   =         1.8716 E_angle  =         0.0000 
E_dihed  =         0.0000 E_impro  =         0.0000 E_vdwl   =        -0.0075 
E_coul   =         0.0000 E_long   =         0.0000 Press    =         0.0040 
---------------- Step   196600 ----- CPU =   1540.7389 (sec) ----------------
TotEng   =         3.3687 KinEng   =         1.5027 Temp     =         1.0018 
PotEng   =         1.8660 E_bond   =         1.8725 E_angle  =         0.0000 
E_dihed  =         0.0000 E_impro  =         0.0000 E_vdwl   =        -0.0065 
E_coul   =         0.0000 E_long   =         0.0000 Press    =         0.0040 
---------------- Step   196700 ----- CPU =   1541.5820 (sec) ----------------
TotEng   =         3.3683 KinEng   =         1.5025 Temp     =         1.0017 
PotEng   =         1.8658 E_bond   =         1.8723 E_angle  =         0.0000 
E_dihed  =         0.0000 E_impro  =         0.0000 E_vdwl   =        -0.0065 
E_coul   =         0.0000 E_long   =         0.0000 Press    =         0.0040 
---------------- Step   196800 ----- CPU =   1542.4429 (sec) ----------------
TotEng   =         3.3687 KinEng   =         1.5019 Temp     =         1.0013 
PotEng   =         1.8668 E_bond   =         1.8734 E_angle  =         0.0000 
E_dihed  =         0.0000 E_impro  =         0.0000 E_vdwl   =        -0.0066 
E_coul   =         0.0000 E_long   =         0.0000 Press    =         0.0039 
---------------- Step   196900 ----- CPU =   1543.3623 (sec) ----------------
TotEng   =         3.3674 KinEng   =         1.5030 Temp     =         1.0020 
PotEng   =         1.8644 E_bond   =         1.8709 E_angle  =         0.0000 
E_dihed  =         0.0000 E_impro  =         0.0000 E_vdwl   =        -0.0066 
E_coul   =         0.0000 E_long   =         0.0000 Press    =         0.0040 
---------------- Step   197000 ----- CPU =   1544.2732 (sec) ----------------
TotEng   =         3.3662 KinEng   =         1.5016 Temp     =         1.0011 
PotEng   =         1.8646 E_bond   =         1.8716 E_angle  =         0.0000 
E_dihed  =         0.0000 E_impro  =         0.0000 E_vdwl   =        -0.0070 
E_coul   =         0.0000 E_long   =         0.0000 Press    =         0.0040 
---------------- Step   197100 ----- CPU =   1545.1210 (sec) ----------------
TotEng   =         3.3671 KinEng   =         1.5028 Temp     =         1.0019 
PotEng   =         1.8643 E_bond   =         1.8713 E_angle  =         0.0000 
E_dihed  =         0.0000 E_impro  =         0.0000 E_vdwl   =        -0.0070 
E_coul   =         0.0000 E_long   =         0.0000 Press    =         0.0039 
---------------- Step   197200 ----- CPU =   1545.9689 (sec) ----------------
TotEng   =         3.3666 KinEng   =         1.5024 Temp     =         1.0016 
PotEng   =         1.8642 E_bond   =         1.8713 E_angle  =         0.0000 
E_dihed  =         0.0000 E_impro  =         0.0000 E_vdwl   =        -0.0071 
E_coul   =         0.0000 E_long   =         0.0000 Press    =         0.0040 
---------------- Step   197300 ----- CPU =   1546.8192 (sec) ----------------
TotEng   =         3.3669 KinEng   =         1.5020 Temp     =         1.0013 
PotEng   =         1.8649 E_bond   =         1.8722 E_angle  =         0.0000 
E_dihed  =         0.0000 E_impro  =         0.0000 E_vdwl   =        -0.0073 
E_coul   =         0.0000 E_long   =         0.0000 Press    =         0.0039 
---------------- Step   197400 ----- CPU =   1547.6491 (sec) ----------------
TotEng   =         3.3688 KinEng   =         1.5022 Temp     =         1.0015 
PotEng   =         1.8666 E_bond   =         1.8714 E_angle  =         0.0000 
E_dihed  =         0.0000 E_impro  =         0.0000 E_vdwl   =        -0.0049 
E_coul   =         0.0000 E_long   =         0.0000 Press    =         0.0040 
---------------- Step   197500 ----- CPU =   1548.4895 (sec) ----------------
TotEng   =         3.3677 KinEng   =         1.5040 Temp     =         1.0027 
PotEng   =         1.8637 E_bond   =         1.8705 E_angle  =         0.0000 
E_dihed  =         0.0000 E_impro  =         0.0000 E_vdwl   =        -0.0068 
E_coul   =         0.0000 E_long   =         0.0000 Press    =         0.0040 
---------------- Step   197600 ----- CPU =   1549.3268 (sec) ----------------
TotEng   =         3.3683 KinEng   =         1.5029 Temp     =         1.0020 
PotEng   =         1.8654 E_bond   =         1.8716 E_angle  =         0.0000 
E_dihed  =         0.0000 E_impro  =         0.0000 E_vdwl   =        -0.0061 
E_coul   =         0.0000 E_long   =         0.0000 Press    =         0.0040 
---------------- Step   197700 ----- CPU =   1550.1768 (sec) ----------------
TotEng   =         3.3672 KinEng   =         1.5018 Temp     =         1.0012 
PotEng   =         1.8653 E_bond   =         1.8722 E_angle  =         0.0000 
E_dihed  =         0.0000 E_impro  =         0.0000 E_vdwl   =        -0.0069 
E_coul   =         0.0000 E_long   =         0.0000 Press    =         0.0038 
---------------- Step   197800 ----- CPU =   1551.0453 (sec) ----------------
TotEng   =         3.3678 KinEng   =         1.5004 Temp     =         1.0003 
PotEng   =         1.8674 E_bond   =         1.8734 E_angle  =         0.0000 
E_dihed  =         0.0000 E_impro  =         0.0000 E_vdwl   =        -0.0061 
E_coul   =         0.0000 E_long   =         0.0000 Press    =         0.0041 
---------------- Step   197900 ----- CPU =   1551.9186 (sec) ----------------
TotEng   =         3.3689 KinEng   =         1.5022 Temp     =         1.0015 
PotEng   =         1.8667 E_bond   =         1.8710 E_angle  =         0.0000 
E_dihed  =         0.0000 E_impro  =         0.0000 E_vdwl   =        -0.0044 
E_coul   =         0.0000 E_long   =         0.0000 Press    =         0.0039 
---------------- Step   198000 ----- CPU =   1552.8228 (sec) ----------------
TotEng   =         3.3684 KinEng   =         1.5043 Temp     =         1.0029 
PotEng   =         1.8642 E_bond   =         1.8713 E_angle  =         0.0000 
E_dihed  =         0.0000 E_impro  =         0.0000 E_vdwl   =        -0.0072 
E_coul   =         0.0000 E_long   =         0.0000 Press    =         0.0040 
---------------- Step   198100 ----- CPU =   1553.6615 (sec) ----------------
TotEng   =         3.3686 KinEng   =         1.5041 Temp     =         1.0028 
PotEng   =         1.8645 E_bond   =         1.8714 E_angle  =         0.0000 
E_dihed  =         0.0000 E_impro  =         0.0000 E_vdwl   =        -0.0069 
E_coul   =         0.0000 E_long   =         0.0000 Press    =         0.0039 
---------------- Step   198200 ----- CPU =   1554.5174 (sec) ----------------
TotEng   =         3.3681 KinEng   =         1.5037 Temp     =         1.0025 
PotEng   =         1.8644 E_bond   =         1.8712 E_angle  =         0.0000 
E_dihed  =         0.0000 E_impro  =         0.0000 E_vdwl   =        -0.0068 
E_coul   =         0.0000 E_long   =         0.0000 Press    =         0.0040 
---------------- Step   198300 ----- CPU =   1555.3932 (sec) ----------------
TotEng   =         3.3667 KinEng   =         1.5037 Temp     =         1.0025 
PotEng   =         1.8630 E_bond   =         1.8696 E_angle  =         0.0000 
E_dihed  =         0.0000 E_impro  =         0.0000 E_vdwl   =        -0.0066 
E_coul   =         0.0000 E_long   =         0.0000 Press    =         0.0040 
---------------- Step   198400 ----- CPU =   1556.2499 (sec) ----------------
TotEng   =         3.3670 KinEng   =         1.5026 Temp     =         1.0018 
PotEng   =         1.8643 E_bond   =         1.8718 E_angle  =         0.0000 
E_dihed  =         0.0000 E_impro  =         0.0000 E_vdwl   =        -0.0075 
E_coul   =         0.0000 E_long   =         0.0000 Press    =         0.0040 
---------------- Step   198500 ----- CPU =   1557.0966 (sec) ----------------
TotEng   =         3.3687 KinEng   =         1.5048 Temp     =         1.0032 
PotEng   =         1.8639 E_bond   =         1.8712 E_angle  =         0.0000 
E_dihed  =         0.0000 E_impro  =         0.0000 E_vdwl   =        -0.0073 
E_coul   =         0.0000 E_long   =         0.0000 Press    =         0.0040 
---------------- Step   198600 ----- CPU =   1557.9231 (sec) ----------------
TotEng   =         3.3708 KinEng   =         1.5069 Temp     =         1.0046 
PotEng   =         1.8639 E_bond   =         1.8701 E_angle  =         0.0000 
E_dihed  =         0.0000 E_impro  =         0.0000 E_vdwl   =        -0.0062 
E_coul   =         0.0000 E_long   =         0.0000 Press    =         0.0039 
---------------- Step   198700 ----- CPU =   1558.7774 (sec) ----------------
TotEng   =         3.3703 KinEng   =         1.5060 Temp     =         1.0040 
PotEng   =         1.8642 E_bond   =         1.8703 E_angle  =         0.0000 
E_dihed  =         0.0000 E_impro  =         0.0000 E_vdwl   =        -0.0061 
E_coul   =         0.0000 E_long   =         0.0000 Press    =         0.0039 
---------------- Step   198800 ----- CPU =   1559.6917 (sec) ----------------
TotEng   =         3.3701 KinEng   =         1.5068 Temp     =         1.0046 
PotEng   =         1.8633 E_bond   =         1.8695 E_angle  =         0.0000 
E_dihed  =         0.0000 E_impro  =         0.0000 E_vdwl   =        -0.0062 
E_coul   =         0.0000 E_long   =         0.0000 Press    =         0.0040 
---------------- Step   198900 ----- CPU =   1560.5126 (sec) ----------------
TotEng   =         3.3682 KinEng   =         1.5024 Temp     =         1.0016 
PotEng   =         1.8657 E_bond   =         1.8717 E_angle  =         0.0000 
E_dihed  =         0.0000 E_impro  =         0.0000 E_vdwl   =        -0.0060 
E_coul   =         0.0000 E_long   =         0.0000 Press    =         0.0038 
---------------- Step   199000 ----- CPU =   1561.4203 (sec) ----------------
TotEng   =         3.3681 KinEng   =         1.5045 Temp     =         1.0030 
PotEng   =         1.8637 E_bond   =         1.8704 E_angle  =         0.0000 
E_dihed  =         0.0000 E_impro  =         0.0000 E_vdwl   =        -0.0067 
E_coul   =         0.0000 E_long   =         0.0000 Press    =         0.0041 
---------------- Step   199100 ----- CPU =   1562.2579 (sec) ----------------
TotEng   =         3.3665 KinEng   =         1.5015 Temp     =         1.0010 
PotEng   =         1.8650 E_bond   =         1.8724 E_angle  =         0.0000 
E_dihed  =         0.0000 E_impro  =         0.0000 E_vdwl   =        -0.0074 
E_coul   =         0.0000 E_long   =         0.0000 Press    =         0.0039 
---------------- Step   199200 ----- CPU =   1563.1030 (sec) ----------------
TotEng   =         3.3697 KinEng   =         1.5070 Temp     =         1.0047 
PotEng   =         1.8626 E_bond   =         1.8695 E_angle  =         0.0000 
E_dihed  =         0.0000 E_impro  =         0.0000 E_vdwl   =        -0.0069 
E_coul   =         0.0000 E_long   =         0.0000 Press    =         0.0040 
---------------- Step   199300 ----- CPU =   1563.9300 (sec) ----------------
TotEng   =         3.3688 KinEng   =         1.5044 Temp     =         1.0030 
PotEng   =         1.8644 E_bond   =         1.8716 E_angle  =         0.0000 
E_dihed  =         0.0000 E_impro  =         0.0000 E_vdwl   =        -0.0071 
E_coul   =         0.0000 E_long   =         0.0000 Press    =         0.0040 
---------------- Step   199400 ----- CPU =   1564.7625 (sec) ----------------
TotEng   =         3.3709 KinEng   =         1.5044 Temp     =         1.0029 
PotEng   =         1.8666 E_bond   =         1.8714 E_angle  =         0.0000 
E_dihed  =         0.0000 E_impro  =         0.0000 E_vdwl   =        -0.0048 
E_coul   =         0.0000 E_long   =         0.0000 Press    =         0.0040 
---------------- Step   199500 ----- CPU =   1565.6545 (sec) ----------------
TotEng   =         3.3702 KinEng   =         1.5068 Temp     =         1.0045 
PotEng   =         1.8634 E_bond   =         1.8706 E_angle  =         0.0000 
E_dihed  =         0.0000 E_impro  =         0.0000 E_vdwl   =        -0.0072 
E_coul   =         0.0000 E_long   =         0.0000 Press    =         0.0040 
---------------- Step   199600 ----- CPU =   1566.5723 (sec) ----------------
TotEng   =         3.3687 KinEng   =         1.5039 Temp     =         1.0026 
PotEng   =         1.8648 E_bond   =         1.8719 E_angle  =         0.0000 
E_dihed  =         0.0000 E_impro  =         0.0000 E_vdwl   =        -0.0071 
E_coul   =         0.0000 E_long   =         0.0000 Press    =         0.0039 
---------------- Step   199700 ----- CPU =   1567.4598 (sec) ----------------
TotEng   =         3.3673 KinEng   =         1.5043 Temp     =         1.0029 
PotEng   =         1.8630 E_bond   =         1.8703 E_angle  =         0.0000 
E_dihed  =         0.0000 E_impro  =         0.0000 E_vdwl   =        -0.0073 
E_coul   =         0.0000 E_long   =         0.0000 Press    =         0.0040 
---------------- Step   199800 ----- CPU =   1568.3234 (sec) ----------------
TotEng   =         3.3675 KinEng   =         1.5028 Temp     =         1.0019 
PotEng   =         1.8647 E_bond   =         1.8713 E_angle  =         0.0000 
E_dihed  =         0.0000 E_impro  =         0.0000 E_vdwl   =        -0.0066 
E_coul   =         0.0000 E_long   =         0.0000 Press    =         0.0040 
---------------- Step   199900 ----- CPU =   1569.1625 (sec) ----------------
TotEng   =         3.3667 KinEng   =         1.5031 Temp     =         1.0021 
PotEng   =         1.8636 E_bond   =         1.8705 E_angle  =         0.0000 
E_dihed  =         0.0000 E_impro  =         0.0000 E_vdwl   =        -0.0069 
E_coul   =         0.0000 E_long   =         0.0000 Press    =         0.0038 
---------------- Step   200000 ----- CPU =   1570.0509 (sec) ----------------
TotEng   =         3.3658 KinEng   =         1.5011 Temp     =         1.0008 
PotEng   =         1.8646 E_bond   =         1.8710 E_angle  =         0.0000 
E_dihed  =         0.0000 E_impro  =         0.0000 E_vdwl   =        -0.0063 
E_coul   =         0.0000 E_long   =         0.0000 Press    =         0.0041 
Loop time of 1570.05 on 4 procs for 200000 steps with 45870 atoms

Performance: 11006.012 tau/day, 127.384 timesteps/s
98.2% CPU use with 4 MPI tasks x no OpenMP threads

MPI task timing breakdown:
Section |  min time  |  avg time  |  max time  |%varavg| %total
---------------------------------------------------------------
Pair    | 32.713     | 33.88      | 35.435     |  20.4 |  2.16
Bond    | 10.92      | 12.469     | 14.449     |  36.7 |  0.79
Neigh   | 1185.6     | 1186.2     | 1186.6     |   1.0 | 75.55
Comm    | 95.521     | 104        | 109.71     |  53.7 |  6.62
Output  | 1.1724     | 1.3525     | 1.7964     |  22.1 |  0.09
Modify  | 214.9      | 219.85     | 224.72     |  24.0 | 14.00
Other   |            | 12.28      |            |       |  0.78

Nlocal:    11467.5 ave 11838 max 11060 min
Histogram: 1 0 0 0 0 2 0 0 0 1
Nghost:    820.25 ave 871 max 777 min
Histogram: 1 0 0 1 0 1 0 0 0 1
Neighs:    594 ave 729 max 476 min
Histogram: 1 0 0 0 2 0 0 0 0 1

Total # of neighbors = 2376
Ave neighs/atom = 0.0517986
Ave special neighs/atom = 0.18051
Neighbor list builds = 40000
Dangerous builds not checked

Total wall time: 0:26:10
